/*--------------------------------*- C++ -*----------------------------------*\
  =========                 |
  \\      /  F ield         | OpenFOAM: The Open Source CFD Toolbox
   \\    /   O peration     | Website:  https://openfoam.org
    \\  /    A nd           | Version:  7
     \\/     M anipulation  |
\*---------------------------------------------------------------------------*/
FoamFile
{
    version     2.0;
    format      ascii;
    class       surfaceScalarField;
    location    "0.000";
    object      phi;
}
// * * * * * * * * * * * * * * * * * * * * * * * * * * * * * * * * * * * * * //

dimensions      [0 3 -1 0 0 0 0];

internalField   nonuniform List<scalar> 
100
(
-1.5722e-10
-1.57109e-10
-1.57109e-10
-1.57109e-10
-1.57109e-10
-1.57109e-10
-1.57109e-10
-1.57109e-10
-1.57109e-10
-1.57109e-10
-1.57109e-10
-1.57109e-10
-1.57109e-10
-1.57109e-10
-1.57109e-10
-1.57109e-10
-1.57109e-10
-1.57109e-10
-1.57109e-10
-1.57109e-10
-1.57109e-10
-1.57109e-10
-1.57109e-10
-1.57109e-10
-1.57109e-10
-1.57109e-10
-1.57109e-10
-1.57109e-10
-1.57109e-10
-1.57109e-10
-1.57109e-10
-1.57109e-10
-1.57109e-10
-1.57109e-10
-1.57109e-10
-1.57109e-10
-1.57109e-10
-1.57109e-10
-1.57109e-10
-1.57109e-10
-1.57109e-10
-1.57109e-10
-1.57109e-10
-1.57109e-10
-1.57109e-10
-1.57109e-10
-1.57109e-10
-1.57109e-10
-1.57109e-10
-1.57109e-10
-1.57109e-10
-1.57109e-10
-1.57109e-10
-1.57109e-10
-1.57109e-10
-1.57109e-10
-1.57109e-10
-1.57109e-10
-1.57109e-10
-1.57109e-10
-1.57109e-10
-1.57109e-10
-1.57109e-10
-1.57109e-10
-1.57109e-10
-1.57109e-10
-1.57109e-10
-1.57109e-10
-1.57109e-10
-1.57109e-10
-1.57109e-10
-1.57109e-10
-1.57109e-10
-1.57109e-10
-1.57109e-10
-1.57109e-10
-1.57109e-10
-1.57109e-10
-1.57109e-10
-1.57109e-10
-1.57109e-10
-1.57109e-10
-1.57109e-10
-1.57109e-10
-1.57109e-10
-1.57109e-10
-1.57109e-10
-1.57109e-10
-1.57109e-10
-1.57109e-10
-1.57109e-10
-1.57109e-10
-1.57109e-10
-1.57109e-10
-1.57109e-10
-1.57109e-10
-1.57109e-10
-1.57121e-10
-1.96981e-10
-1.38029e-07
)
;

boundaryField
{
    top
    {
        type            calculated;
        value           uniform -7.16856e-06;
    }
    left
    {
        type            empty;
        value           nonuniform 0();
    }
    right
    {
        type            empty;
        value           nonuniform 0();
    }
    front
    {
        type            empty;
        value           nonuniform 0();
    }
    back
    {
        type            empty;
        value           nonuniform 0();
    }
    bottom
    {
        type            calculated;
        value           uniform 3.09421e-10;
    }
}


// ************************************************************************* //
