/*--------------------------------*- C++ -*----------------------------------*\
  =========                 |
  \\      /  F ield         | OpenFOAM: The Open Source CFD Toolbox
   \\    /   O peration     | Website:  https://openfoam.org
    \\  /    A nd           | Version:  7
     \\/     M anipulation  |
\*---------------------------------------------------------------------------*/
FoamFile
{
    version     2.0;
    format      ascii;
    class       volScalarField;
    location    "863997.597";
    object      BAP;
}
// * * * * * * * * * * * * * * * * * * * * * * * * * * * * * * * * * * * * * //

dimensions      [1 -3 0 0 0 0 0];

internalField   nonuniform List<scalar> 
200
(
0.0013164
0.00131168
0.00130852
0.00130533
0.00130214
0.00129891
0.00129569
0.00129244
0.00128919
0.0012859
0.00128262
0.0012793
0.00127599
0.00127264
0.00126929
0.00126591
0.00126253
0.00125911
0.00125569
0.00125225
0.00124879
0.00124531
0.00124182
0.0012383
0.00123478
0.00123123
0.00122767
0.00122407
0.00122048
0.00121685
0.00121321
0.00120955
0.00120587
0.00120217
0.00119845
0.00119471
0.00119095
0.00118716
0.00118337
0.00117954
0.00117571
0.00117183
0.00116796
0.00116404
0.00116012
0.00115616
0.0011522
0.00114819
0.00114418
0.00114013
0.00113607
0.00113198
0.00112787
0.00112373
0.00111958
0.00111539
0.00111118
0.00110694
0.00110269
0.0010984
0.00109409
0.00108975
0.00108539
0.001081
0.00107659
0.00107214
0.00106767
0.00106317
0.00105865
0.00105409
0.00104951
0.00104489
0.00104025
0.00103557
0.00103088
0.00102614
0.00102138
0.00101658
0.00101177
0.0010069
0.00100202
0.000997094
0.000992147
0.000987153
0.00098214
0.000977079
0.000971997
0.000966867
0.000961715
0.000956515
0.000951292
0.000946019
0.000940723
0.000935376
0.000930005
0.000924583
0.000919135
0.000913635
0.000908108
0.000902529
0.000896922
0.000891262
0.000885572
0.000879828
0.000874054
0.000868225
0.000862364
0.000856447
0.000850497
0.00084449
0.00083845
0.00083235
0.000826216
0.000820023
0.000813793
0.000807502
0.000801174
0.000794784
0.000788355
0.000781863
0.00077533
0.000768733
0.000762094
0.00075539
0.000748642
0.000741826
0.000734967
0.000728038
0.000721063
0.000714017
0.000706924
0.000699758
0.000692543
0.000685255
0.000677915
0.0006705
0.000663032
0.000655486
0.000647886
0.000640206
0.00063247
0.000624653
0.000616777
0.000608818
0.000600798
0.000592694
0.000584526
0.000576271
0.000567951
0.000559541
0.000551064
0.000542495
0.000533857
0.000525124
0.000516319
0.000507417
0.00049844
0.000489365
0.000480211
0.000470956
0.00046162
0.00045218
0.000442656
0.000433025
0.000423307
0.000413479
0.000403562
0.000393531
0.000383407
0.000373166
0.000362829
0.000352373
0.000341816
0.000331136
0.000320352
0.000309441
0.000298423
0.000287274
0.000276014
0.000264618
0.000253108
0.000241458
0.000229689
0.000217776
0.000205739
0.000193555
0.000181242
0.000168776
0.000156177
0.00014342
0.000130525
0.000117468
0.000104267
9.08977e-05
7.73797e-05
6.36885e-05
4.98425e-05
3.58176e-05
2.16317e-05
7.26177e-06
)
;

boundaryField
{
    top
    {
        type            uniformInletOutlet;
        uniformInletValue constant 0;
        value           uniform 0;
    }
    left
    {
        type            empty;
    }
    right
    {
        type            empty;
    }
    front
    {
        type            empty;
    }
    back
    {
        type            empty;
    }
    bottom
    {
        type            zeroGradient;
    }
}


// ************************************************************************* //
