/*--------------------------------*- C++ -*----------------------------------*\
  =========                 |
  \\      /  F ield         | OpenFOAM: The Open Source CFD Toolbox
   \\    /   O peration     | Website:  https://openfoam.org
    \\  /    A nd           | Version:  7
     \\/     M anipulation  |
\*---------------------------------------------------------------------------*/
FoamFile
{
    version     2.0;
    format      ascii;
    class       volScalarField;
    location    "863997.597";
    object      DOC;
}
// * * * * * * * * * * * * * * * * * * * * * * * * * * * * * * * * * * * * * //

dimensions      [1 -3 0 0 0 0 0];

internalField   nonuniform List<scalar> 
200
(
0.00329958
0.00331453
0.00332457
0.00333473
0.00334491
0.00335521
0.00336553
0.00337598
0.00338645
0.00339704
0.00340767
0.00341841
0.00342919
0.00344009
0.00345102
0.00346208
0.00347318
0.0034844
0.00349567
0.00350705
0.00351849
0.00353005
0.00354166
0.00355339
0.00356518
0.00357709
0.00358906
0.00360116
0.00361332
0.00362561
0.00363795
0.00365044
0.00366298
0.00367566
0.00368841
0.00370129
0.00371424
0.00372734
0.0037405
0.00375381
0.00376719
0.00378072
0.00379433
0.00380808
0.00382191
0.0038359
0.00384997
0.0038642
0.00387851
0.00389298
0.00390754
0.00392226
0.00393708
0.00395206
0.00396713
0.00398238
0.00399773
0.00401325
0.00402887
0.00404467
0.00406058
0.00407667
0.00409287
0.00410926
0.00412576
0.00414245
0.00415927
0.00417628
0.00419341
0.00421074
0.0042282
0.00424587
0.00426367
0.00428168
0.00429983
0.00431819
0.0043367
0.00435543
0.00437431
0.00439341
0.00441267
0.00443216
0.00445182
0.00447171
0.00449177
0.00451207
0.00453256
0.00455328
0.0045742
0.00459536
0.00461672
0.00463834
0.00466016
0.00468225
0.00470454
0.00472711
0.0047499
0.00477297
0.00479626
0.00481985
0.00484367
0.00486778
0.00489215
0.00491681
0.00494174
0.00496698
0.00499248
0.00501831
0.00504441
0.00507085
0.00509757
0.00512464
0.00515201
0.00517974
0.00520777
0.00523617
0.0052649
0.005294
0.00532344
0.00535327
0.00538345
0.00541403
0.00544498
0.00547635
0.00550809
0.00554027
0.00557284
0.00560586
0.00563929
0.00567318
0.0057075
0.0057423
0.00577755
0.00581329
0.00584949
0.00588621
0.00592342
0.00596116
0.0059994
0.00603819
0.00607751
0.00611741
0.00615785
0.00619889
0.0062405
0.00628273
0.00632556
0.00636903
0.00641312
0.00645788
0.00650329
0.0065494
0.00659618
0.00664369
0.0066919
0.00674087
0.00679057
0.00684107
0.00689233
0.00694441
0.00699729
0.00705103
0.00710561
0.00716108
0.00721743
0.0072747
0.0073329
0.00739206
0.00745219
0.00751332
0.00757546
0.00763866
0.00770291
0.00776826
0.00783472
0.00790233
0.00797109
0.00804105
0.00811222
0.00818466
0.00825836
0.00833338
0.00840972
0.00848745
0.00856656
0.00864713
0.00872914
0.00881268
0.00889774
0.00898438
0.00907263
0.00916255
0.00925414
0.00934748
0.00944258
0.00953951
0.00963829
0.009739
0.00984169
0.00994705
)
;

boundaryField
{
    top
    {
        type            uniformInletOutlet;
        uniformInletValue constant 0.01;
        value           uniform 0.01;
    }
    left
    {
        type            empty;
    }
    right
    {
        type            empty;
    }
    front
    {
        type            empty;
    }
    back
    {
        type            empty;
    }
    bottom
    {
        type            zeroGradient;
    }
}


// ************************************************************************* //
