/*--------------------------------*- C++ -*----------------------------------*\
  =========                 |
  \\      /  F ield         | OpenFOAM: The Open Source CFD Toolbox
   \\    /   O peration     | Website:  https://openfoam.org
    \\  /    A nd           | Version:  7
     \\/     M anipulation  |
\*---------------------------------------------------------------------------*/
FoamFile
{
    version     2.0;
    format      ascii;
    class       volScalarField;
    location    "863997.597";
    object      EPS;
}
// * * * * * * * * * * * * * * * * * * * * * * * * * * * * * * * * * * * * * //

dimensions      [1 -3 0 0 0 0 0];

internalField   nonuniform List<scalar> 
200
(
0.00206075
0.00206958
0.00207642
0.00208315
0.0020899
0.00209674
0.00210362
0.00211058
0.00211759
0.00212468
0.00213183
0.00213905
0.00214633
0.0021537
0.00216112
0.00216862
0.00217618
0.00218382
0.00219153
0.00219933
0.00220718
0.00221513
0.00222314
0.00223124
0.00223941
0.00224766
0.00225599
0.00226441
0.00227291
0.0022815
0.00229016
0.00229892
0.00230776
0.00231669
0.00232571
0.00233482
0.00234402
0.00235332
0.00236271
0.0023722
0.00238178
0.00239147
0.00240124
0.00241113
0.00242111
0.0024312
0.00244139
0.0024517
0.0024621
0.00247262
0.00248324
0.00249399
0.00250484
0.00251581
0.00252689
0.0025381
0.00254942
0.00256088
0.00257244
0.00258414
0.00259596
0.00260792
0.00261999
0.00263221
0.00264456
0.00265705
0.00266967
0.00268244
0.00269534
0.0027084
0.00272159
0.00273494
0.00274843
0.00276208
0.00277588
0.00278985
0.00280397
0.00281826
0.0028327
0.00284732
0.0028621
0.00287706
0.00289219
0.0029075
0.00292298
0.00293866
0.00295451
0.00297055
0.00298678
0.00300322
0.00301984
0.00303667
0.00305369
0.00307093
0.00308837
0.00310603
0.0031239
0.003142
0.00316031
0.00317885
0.00319762
0.00321663
0.00323587
0.00325535
0.00327508
0.00329506
0.00331529
0.00333578
0.00335652
0.00337754
0.00339882
0.00342039
0.00344222
0.00346435
0.00348675
0.00350946
0.00353246
0.00355577
0.00357938
0.00360331
0.00362755
0.00365212
0.00367702
0.00370225
0.00372782
0.00375375
0.00378002
0.00380666
0.00383365
0.00386103
0.00388877
0.00391691
0.00394543
0.00397435
0.00400368
0.00403342
0.00406358
0.00409417
0.00412519
0.00415666
0.00418857
0.00422095
0.00425379
0.00428712
0.00432092
0.00435522
0.00439001
0.00442533
0.00446116
0.00449753
0.00453443
0.00457189
0.0046099
0.00464849
0.00468766
0.00472743
0.00476779
0.00480878
0.00485039
0.00489264
0.00493554
0.00497911
0.00502336
0.00506829
0.00511393
0.00516029
0.00520737
0.0052552
0.00530379
0.00535316
0.00540331
0.00545427
0.00550604
0.00555866
0.00561213
0.00566647
0.0057217
0.00577783
0.00583488
0.00589288
0.00595183
0.00601177
0.0060727
0.00613466
0.00619765
0.0062617
0.00632683
0.00639307
0.00646043
0.00652894
0.00659862
0.0066695
0.00674159
0.00681493
0.00688954
0.00696545
0.00704269
0.00712134
0.00720137
0.00727865
)
;

boundaryField
{
    top
    {
        type            zeroGradient;
    }
    left
    {
        type            empty;
    }
    right
    {
        type            empty;
    }
    front
    {
        type            empty;
    }
    back
    {
        type            empty;
    }
    bottom
    {
        type            zeroGradient;
    }
}


// ************************************************************************* //
