/*--------------------------------*- C++ -*----------------------------------*\
  =========                 |
  \\      /  F ield         | OpenFOAM: The Open Source CFD Toolbox
   \\    /   O peration     | Website:  https://openfoam.org
    \\  /    A nd           | Version:  7
     \\/     M anipulation  |
\*---------------------------------------------------------------------------*/
FoamFile
{
    version     2.0;
    format      ascii;
    class       volScalarField;
    location    "863997.597";
    object      h;
}
// * * * * * * * * * * * * * * * * * * * * * * * * * * * * * * * * * * * * * //

dimensions      [0 1 0 0 0 0 0];

internalField   nonuniform List<scalar> 
200
(
0.0394148
0.0394149
0.0394152
0.0394158
0.0394166
0.0394175
0.0394188
0.0394202
0.0394219
0.0394238
0.0394259
0.0394282
0.0394308
0.0394337
0.0394367
0.03944
0.0394436
0.0394474
0.0394514
0.0394557
0.0394603
0.0394651
0.0394702
0.0394755
0.0394811
0.0394869
0.039493
0.0394994
0.0395061
0.0395131
0.0395203
0.0395278
0.0395356
0.0395437
0.0395521
0.0395608
0.0395697
0.039579
0.0395886
0.0395985
0.0396087
0.0396192
0.03963
0.0396411
0.0396526
0.0396644
0.0396765
0.039689
0.0397018
0.039715
0.0397285
0.0397423
0.0397565
0.0397711
0.039786
0.0398012
0.0398169
0.0398329
0.0398493
0.0398661
0.0398833
0.0399008
0.0399188
0.0399371
0.0399559
0.039975
0.0399946
0.0400146
0.040035
0.0400559
0.0400771
0.0400989
0.040121
0.0401436
0.0401667
0.0401902
0.0402142
0.0402386
0.0402636
0.040289
0.0403149
0.0403412
0.0403681
0.0403955
0.0404234
0.0404518
0.0404808
0.0405102
0.0405402
0.0405708
0.0406019
0.0406335
0.0406658
0.0406985
0.0407319
0.0407659
0.0408004
0.0408355
0.0408713
0.0409076
0.0409446
0.0409823
0.0410205
0.0410594
0.041099
0.0411392
0.0411801
0.0412217
0.041264
0.041307
0.0413507
0.0413951
0.0414402
0.0414861
0.0415327
0.0415801
0.0416283
0.0416772
0.0417269
0.0417775
0.0418288
0.041881
0.041934
0.0419878
0.0420426
0.0420981
0.0421546
0.042212
0.0422703
0.0423295
0.0423896
0.0424507
0.0425128
0.0425758
0.0426398
0.0427048
0.0427709
0.042838
0.0429061
0.0429753
0.0430456
0.043117
0.0431895
0.0432632
0.043338
0.043414
0.0434911
0.0435695
0.043649
0.0437299
0.043812
0.0438953
0.04398
0.044066
0.0441533
0.044242
0.0443321
0.0444236
0.0445165
0.0446109
0.0447067
0.0448041
0.0449029
0.0450034
0.0451054
0.045209
0.0453142
0.0454211
0.0455297
0.0456399
0.045752
0.0458658
0.0459814
0.0460988
0.0462181
0.0463392
0.0464623
0.0465874
0.0467144
0.0468435
0.0469746
0.0471079
0.0472432
0.0473808
0.0475205
0.0476625
0.0478068
0.0479534
0.0481024
0.0482538
0.0484077
0.048564
0.0487229
0.0488844
0.0490486
0.0492154
0.049385
0.0495574
0.0497326
0.0499106
)
;

boundaryField
{
    top
    {
        type            fixedValue;
        value           uniform 0.05;
    }
    left
    {
        type            empty;
    }
    right
    {
        type            empty;
    }
    front
    {
        type            empty;
    }
    back
    {
        type            empty;
    }
    bottom
    {
        type            fixedGradient;
        gradient        uniform 0;
    }
}


// ************************************************************************* //
