/*--------------------------------*- C++ -*----------------------------------*\
  =========                 |
  \\      /  F ield         | OpenFOAM: The Open Source CFD Toolbox
   \\    /   O peration     | Website:  https://openfoam.org
    \\  /    A nd           | Version:  7
     \\/     M anipulation  |
\*---------------------------------------------------------------------------*/
FoamFile
{
    version     2.0;
    format      ascii;
    class       volScalarField;
    location    "0.00000";
    object      hydraulicCond;
}
// * * * * * * * * * * * * * * * * * * * * * * * * * * * * * * * * * * * * * //

dimensions      [0 1 -1 0 0 0 0];

internalField   nonuniform List<scalar> 
200
(
4.02913e-05
4.02899e-05
4.0289e-05
4.0288e-05
4.02875e-05
4.02866e-05
4.02857e-05
4.02847e-05
4.02838e-05
4.02829e-05
4.02819e-05
4.0281e-05
4.028e-05
4.02791e-05
4.02782e-05
4.02772e-05
4.02763e-05
4.02754e-05
4.0274e-05
4.0273e-05
4.02721e-05
4.02711e-05
4.02702e-05
4.02688e-05
4.02679e-05
4.02669e-05
4.0266e-05
4.02646e-05
4.02636e-05
4.02622e-05
4.02613e-05
4.02604e-05
4.0259e-05
4.0258e-05
4.02566e-05
4.02557e-05
4.02543e-05
4.02529e-05
4.02519e-05
4.02505e-05
4.02496e-05
4.02482e-05
4.02468e-05
4.02454e-05
4.02444e-05
4.0243e-05
4.02416e-05
4.02402e-05
4.02388e-05
4.02374e-05
4.0236e-05
4.02346e-05
4.02332e-05
4.02318e-05
4.02304e-05
4.0229e-05
4.02276e-05
4.02257e-05
4.02243e-05
4.02229e-05
4.02215e-05
4.02196e-05
4.02182e-05
4.02163e-05
4.02149e-05
4.0213e-05
4.02116e-05
4.02098e-05
4.02084e-05
4.02065e-05
4.02046e-05
4.02027e-05
4.02013e-05
4.01995e-05
4.01976e-05
4.01957e-05
4.01938e-05
4.0192e-05
4.01901e-05
4.01882e-05
4.01859e-05
4.0184e-05
4.01821e-05
4.01798e-05
4.01779e-05
4.0176e-05
4.01737e-05
4.01718e-05
4.01695e-05
4.01672e-05
4.01653e-05
4.01629e-05
4.01606e-05
4.01583e-05
4.01559e-05
4.01536e-05
4.01512e-05
4.01489e-05
4.01461e-05
4.01438e-05
4.01414e-05
4.01386e-05
4.01363e-05
4.01335e-05
4.01311e-05
4.01283e-05
4.01255e-05
4.01227e-05
4.01199e-05
4.01171e-05
4.01143e-05
4.01115e-05
4.01082e-05
4.01054e-05
4.01026e-05
4.00993e-05
4.00961e-05
4.00933e-05
4.009e-05
4.00867e-05
4.00834e-05
4.00802e-05
4.00769e-05
4.00732e-05
4.00699e-05
4.00662e-05
4.00629e-05
4.00591e-05
4.00554e-05
4.00517e-05
4.00479e-05
4.00442e-05
4.00405e-05
4.00363e-05
4.00325e-05
4.00283e-05
4.00241e-05
4.00199e-05
4.00157e-05
4.00115e-05
4.00073e-05
4.00026e-05
3.99984e-05
3.99938e-05
3.99891e-05
3.99844e-05
3.99798e-05
3.99747e-05
3.997e-05
3.99649e-05
3.99597e-05
3.99546e-05
3.99495e-05
3.99443e-05
3.99387e-05
3.99331e-05
3.99276e-05
3.9922e-05
3.99164e-05
3.99103e-05
3.99047e-05
3.98987e-05
3.98926e-05
3.98861e-05
3.988e-05
3.98735e-05
3.9867e-05
3.98605e-05
3.98535e-05
3.9847e-05
3.984e-05
3.98325e-05
3.98256e-05
3.98181e-05
3.98107e-05
3.98032e-05
3.97953e-05
3.97879e-05
3.978e-05
3.97716e-05
3.97632e-05
3.97549e-05
3.97465e-05
3.97381e-05
3.97293e-05
3.972e-05
3.97112e-05
3.97019e-05
3.96922e-05
3.96829e-05
3.96731e-05
3.96629e-05
3.96527e-05
3.96425e-05
3.96323e-05
3.96216e-05
3.96105e-05
3.95994e-05
3.95882e-05
3.95776e-05
)
;

boundaryField
{
    top
    {
        type            calculated;
        value           uniform 3.95776e-05;
    }
    left
    {
        type            empty;
    }
    right
    {
        type            empty;
    }
    front
    {
        type            empty;
    }
    back
    {
        type            empty;
    }
    bottom
    {
        type            calculated;
        value           uniform 4.02913e-05;
    }
}


// ************************************************************************* //
