/*--------------------------------*- C++ -*----------------------------------*\
  =========                 |
  \\      /  F ield         | OpenFOAM: The Open Source CFD Toolbox
   \\    /   O peration     | Website:  https://openfoam.org
    \\  /    A nd           | Version:  7
     \\/     M anipulation  |
\*---------------------------------------------------------------------------*/
FoamFile
{
    version     2.0;
    format      ascii;
    class       volScalarField;
    location    "863997.597";
    object      hydraulicCond;
}
// * * * * * * * * * * * * * * * * * * * * * * * * * * * * * * * * * * * * * //

dimensions      [0 1 -1 0 0 0 0];

internalField   nonuniform List<scalar> 
200
(
4.02911e-05
4.029e-05
4.02891e-05
4.02882e-05
4.02874e-05
4.02865e-05
4.02856e-05
4.02847e-05
4.02838e-05
4.02828e-05
4.02819e-05
4.0281e-05
4.028e-05
4.02791e-05
4.02781e-05
4.02771e-05
4.02762e-05
4.02752e-05
4.02742e-05
4.02732e-05
4.02721e-05
4.02711e-05
4.02701e-05
4.0269e-05
4.02679e-05
4.02669e-05
4.02658e-05
4.02647e-05
4.02636e-05
4.02625e-05
4.02613e-05
4.02602e-05
4.0259e-05
4.02579e-05
4.02567e-05
4.02555e-05
4.02543e-05
4.02531e-05
4.02519e-05
4.02506e-05
4.02494e-05
4.02481e-05
4.02468e-05
4.02455e-05
4.02442e-05
4.02429e-05
4.02416e-05
4.02402e-05
4.02388e-05
4.02375e-05
4.02361e-05
4.02347e-05
4.02332e-05
4.02318e-05
4.02303e-05
4.02289e-05
4.02274e-05
4.02259e-05
4.02243e-05
4.02228e-05
4.02212e-05
4.02197e-05
4.02181e-05
4.02165e-05
4.02148e-05
4.02132e-05
4.02115e-05
4.02098e-05
4.02081e-05
4.02064e-05
4.02047e-05
4.02029e-05
4.02011e-05
4.01993e-05
4.01975e-05
4.01956e-05
4.01938e-05
4.01919e-05
4.01899e-05
4.0188e-05
4.0186e-05
4.01841e-05
4.0182e-05
4.018e-05
4.01779e-05
4.01759e-05
4.01738e-05
4.01716e-05
4.01695e-05
4.01673e-05
4.01651e-05
4.01628e-05
4.01605e-05
4.01582e-05
4.01559e-05
4.01535e-05
4.01512e-05
4.01487e-05
4.01463e-05
4.01438e-05
4.01413e-05
4.01387e-05
4.01362e-05
4.01336e-05
4.01309e-05
4.01282e-05
4.01255e-05
4.01228e-05
4.012e-05
4.01171e-05
4.01143e-05
4.01114e-05
4.01084e-05
4.01055e-05
4.01024e-05
4.00994e-05
4.00963e-05
4.00931e-05
4.00899e-05
4.00867e-05
4.00834e-05
4.00801e-05
4.00767e-05
4.00733e-05
4.00699e-05
4.00663e-05
4.00628e-05
4.00592e-05
4.00555e-05
4.00518e-05
4.0048e-05
4.00442e-05
4.00403e-05
4.00364e-05
4.00324e-05
4.00283e-05
4.00242e-05
4.00201e-05
4.00158e-05
4.00115e-05
4.00072e-05
4.00028e-05
3.99983e-05
3.99937e-05
3.99891e-05
3.99844e-05
3.99796e-05
3.99748e-05
3.99699e-05
3.99649e-05
3.99598e-05
3.99547e-05
3.99495e-05
3.99441e-05
3.99388e-05
3.99333e-05
3.99277e-05
3.99221e-05
3.99163e-05
3.99105e-05
3.99046e-05
3.98986e-05
3.98925e-05
3.98863e-05
3.98799e-05
3.98735e-05
3.9867e-05
3.98604e-05
3.98536e-05
3.98468e-05
3.98398e-05
3.98328e-05
3.98256e-05
3.98183e-05
3.98108e-05
3.98033e-05
3.97956e-05
3.97878e-05
3.97798e-05
3.97717e-05
3.97635e-05
3.97551e-05
3.97466e-05
3.9738e-05
3.97292e-05
3.97202e-05
3.97111e-05
3.97018e-05
3.96924e-05
3.96828e-05
3.9673e-05
3.9663e-05
3.96529e-05
3.96426e-05
3.96321e-05
3.96215e-05
3.96106e-05
3.95995e-05
3.95883e-05
3.95776e-05
)
;

boundaryField
{
    top
    {
        type            calculated;
        value           uniform 3.95776e-05;
    }
    left
    {
        type            empty;
    }
    right
    {
        type            empty;
    }
    front
    {
        type            empty;
    }
    back
    {
        type            empty;
    }
    bottom
    {
        type            calculated;
        value           uniform 4.02911e-05;
    }
}


// ************************************************************************* //
