/*--------------------------------*- C++ -*----------------------------------*\
  =========                 |
  \\      /  F ield         | OpenFOAM: The Open Source CFD Toolbox
   \\    /   O peration     | Website:  https://openfoam.org
    \\  /    A nd           | Version:  7
     \\/     M anipulation  |
\*---------------------------------------------------------------------------*/
FoamFile
{
    version     2.0;
    format      ascii;
    class       volScalarField;
    location    "0.00000";
    object      katt;
}
// * * * * * * * * * * * * * * * * * * * * * * * * * * * * * * * * * * * * * //

dimensions      [0 0 -1 0 0 0 0];

internalField   nonuniform List<scalar> 
200
(
8.66935e-06
8.66939e-06
8.66942e-06
8.66945e-06
8.66949e-06
8.66952e-06
8.66955e-06
8.66958e-06
8.66962e-06
8.66965e-06
8.66969e-06
8.66972e-06
8.66975e-06
8.66979e-06
8.66982e-06
8.66986e-06
8.66989e-06
8.66993e-06
8.66997e-06
8.67e-06
8.67004e-06
8.67008e-06
8.67011e-06
8.67015e-06
8.67019e-06
8.67023e-06
8.67027e-06
8.67031e-06
8.67035e-06
8.67039e-06
8.67043e-06
8.67047e-06
8.67051e-06
8.67056e-06
8.6706e-06
8.67064e-06
8.67069e-06
8.67073e-06
8.67077e-06
8.67082e-06
8.67087e-06
8.67091e-06
8.67096e-06
8.671e-06
8.67105e-06
8.6711e-06
8.67115e-06
8.6712e-06
8.67125e-06
8.6713e-06
8.67135e-06
8.6714e-06
8.67145e-06
8.6715e-06
8.67156e-06
8.67161e-06
8.67166e-06
8.67172e-06
8.67177e-06
8.67183e-06
8.67189e-06
8.67194e-06
8.672e-06
8.67206e-06
8.67212e-06
8.67218e-06
8.67224e-06
8.6723e-06
8.67236e-06
8.67243e-06
8.67249e-06
8.67255e-06
8.67262e-06
8.67268e-06
8.67275e-06
8.67282e-06
8.67289e-06
8.67295e-06
8.67302e-06
8.67309e-06
8.67317e-06
8.67324e-06
8.67331e-06
8.67338e-06
8.67346e-06
8.67354e-06
8.67361e-06
8.67369e-06
8.67377e-06
8.67385e-06
8.67393e-06
8.67401e-06
8.67409e-06
8.67418e-06
8.67426e-06
8.67435e-06
8.67444e-06
8.67452e-06
8.67461e-06
8.6747e-06
8.67479e-06
8.67489e-06
8.67498e-06
8.67508e-06
8.67517e-06
8.67527e-06
8.67537e-06
8.67547e-06
8.67557e-06
8.67567e-06
8.67578e-06
8.67589e-06
8.67599e-06
8.6761e-06
8.67621e-06
8.67632e-06
8.67644e-06
8.67655e-06
8.67667e-06
8.67678e-06
8.6769e-06
8.67702e-06
8.67715e-06
8.67727e-06
8.6774e-06
8.67753e-06
8.67766e-06
8.67779e-06
8.67792e-06
8.67806e-06
8.6782e-06
8.67834e-06
8.67848e-06
8.67862e-06
8.67877e-06
8.67892e-06
8.67906e-06
8.67922e-06
8.67937e-06
8.67953e-06
8.67969e-06
8.67985e-06
8.68001e-06
8.68018e-06
8.68035e-06
8.68052e-06
8.6807e-06
8.68088e-06
8.68105e-06
8.68124e-06
8.68142e-06
8.68161e-06
8.6818e-06
8.682e-06
8.68219e-06
8.68239e-06
8.6826e-06
8.68281e-06
8.68302e-06
8.68323e-06
8.68345e-06
8.68367e-06
8.68389e-06
8.68412e-06
8.68435e-06
8.68459e-06
8.68483e-06
8.68507e-06
8.68532e-06
8.68557e-06
8.68582e-06
8.68608e-06
8.68635e-06
8.68662e-06
8.68689e-06
8.68717e-06
8.68745e-06
8.68774e-06
8.68803e-06
8.68833e-06
8.68863e-06
8.68894e-06
8.68925e-06
8.68957e-06
8.6899e-06
8.69023e-06
8.69056e-06
8.69091e-06
8.69125e-06
8.69161e-06
8.69197e-06
8.69234e-06
8.69271e-06
8.69309e-06
8.69348e-06
8.69387e-06
8.69428e-06
8.69469e-06
8.6951e-06
9.30138e-06
)
;

boundaryField
{
    top
    {
        type            calculated;
        value           uniform 2.34112e-16;
    }
    left
    {
        type            empty;
    }
    right
    {
        type            empty;
    }
    front
    {
        type            empty;
    }
    back
    {
        type            empty;
    }
    bottom
    {
        type            calculated;
        value           uniform 8.66935e-06;
    }
}


// ************************************************************************* //
