/*--------------------------------*- C++ -*----------------------------------*\
  =========                 |
  \\      /  F ield         | OpenFOAM: The Open Source CFD Toolbox
   \\    /   O peration     | Website:  https://openfoam.org
    \\  /    A nd           | Version:  7
     \\/     M anipulation  |
\*---------------------------------------------------------------------------*/
FoamFile
{
    version     2.0;
    format      ascii;
    class       volScalarField;
    location    "863997.597";
    object      NH4;
}
// * * * * * * * * * * * * * * * * * * * * * * * * * * * * * * * * * * * * * //

dimensions      [1 -3 0 0 0 0 0];

internalField   nonuniform List<scalar> 
200
(
0.000649873
0.000650728
0.000651303
0.000651878
0.00065246
0.000653043
0.000653633
0.000654223
0.000654819
0.000655416
0.00065602
0.000656625
0.000657237
0.000657849
0.000658469
0.000659089
0.000659717
0.000660345
0.000660981
0.000661617
0.000662261
0.000662907
0.000663559
0.000664213
0.000664874
0.000665537
0.000666207
0.000666879
0.000667558
0.000668239
0.000668928
0.000669619
0.000670318
0.000671018
0.000671727
0.000672437
0.000673156
0.000673877
0.000674606
0.000675337
0.000676077
0.000676819
0.00067757
0.000678324
0.000679086
0.000679851
0.000680624
0.000681401
0.000682187
0.000682975
0.000683773
0.000684574
0.000685385
0.000686199
0.000687022
0.000687849
0.000688686
0.000689526
0.000690377
0.000691231
0.000692096
0.000692964
0.000693843
0.000694726
0.00069562
0.000696518
0.000697428
0.000698341
0.000699266
0.000700196
0.000701138
0.000702084
0.000703042
0.000704005
0.00070498
0.000705961
0.000706954
0.000707953
0.000708964
0.000709982
0.000711012
0.000712048
0.000713098
0.000714155
0.000715225
0.000716301
0.000717392
0.00071849
0.000719602
0.000720721
0.000721856
0.000722998
0.000724155
0.00072532
0.000726501
0.00072769
0.000728895
0.000730109
0.00073134
0.000732579
0.000733836
0.000735102
0.000736386
0.000737679
0.000738991
0.000740313
0.000741653
0.000743005
0.000744375
0.000745757
0.000747158
0.000748571
0.000750005
0.000751451
0.000752918
0.000754398
0.000755899
0.000757414
0.000758951
0.000760502
0.000762076
0.000763666
0.000765278
0.000766907
0.000768559
0.000770228
0.000771922
0.000773634
0.000775371
0.000777126
0.000778908
0.000780709
0.000782538
0.000784386
0.000786263
0.000788161
0.000790088
0.000792037
0.000794017
0.00079602
0.000798053
0.000800112
0.000802202
0.000804319
0.000806468
0.000808645
0.000810856
0.000813096
0.000815371
0.000817676
0.000820018
0.000822391
0.000824804
0.000827248
0.000829733
0.000832252
0.000834813
0.000837409
0.000840049
0.000842727
0.00084545
0.000848212
0.000851021
0.000853872
0.000856772
0.000859715
0.00086271
0.000865749
0.000868843
0.000871984
0.000875181
0.000878427
0.000881733
0.00088509
0.000888509
0.000891982
0.00089552
0.000899114
0.000902776
0.000906498
0.000910291
0.000914146
0.000918075
0.000922071
0.000926143
0.000930285
0.000934507
0.000938803
0.000943183
0.000947641
0.000952187
0.000956814
0.000961534
0.000966339
0.000971241
0.000976233
0.000981327
0.000986516
0.000991816
0.000997274
)
;

boundaryField
{
    top
    {
        type            uniformInletOutlet;
        uniformInletValue constant 0.001;
        value           uniform 0.001;
    }
    left
    {
        type            empty;
    }
    right
    {
        type            empty;
    }
    front
    {
        type            empty;
    }
    back
    {
        type            empty;
    }
    bottom
    {
        type            zeroGradient;
    }
}


// ************************************************************************* //
