/*--------------------------------*- C++ -*----------------------------------*\
  =========                 |
  \\      /  F ield         | OpenFOAM: The Open Source CFD Toolbox
   \\    /   O peration     | Website:  https://openfoam.org
    \\  /    A nd           | Version:  7
     \\/     M anipulation  |
\*---------------------------------------------------------------------------*/
FoamFile
{
    version     2.0;
    format      ascii;
    class       volScalarField;
    location    "863997.597";
    object      NO3;
}
// * * * * * * * * * * * * * * * * * * * * * * * * * * * * * * * * * * * * * //

dimensions      [1 -3 0 0 0 0 0];

internalField   nonuniform List<scalar> 
200
(
0.00200377
0.00200374
0.00200373
0.00200369
0.00200367
0.00200364
0.00200362
0.00200359
0.00200357
0.00200354
0.00200352
0.00200349
0.00200347
0.00200344
0.00200342
0.00200339
0.00200337
0.00200335
0.00200332
0.0020033
0.00200327
0.00200325
0.00200322
0.0020032
0.00200318
0.00200315
0.00200313
0.00200311
0.00200308
0.00200306
0.00200303
0.00200301
0.00200299
0.00200296
0.00200294
0.00200292
0.00200289
0.00200287
0.00200285
0.00200283
0.0020028
0.00200278
0.00200276
0.00200273
0.00200271
0.00200269
0.00200267
0.00200264
0.00200262
0.0020026
0.00200258
0.00200256
0.00200253
0.00200251
0.00200249
0.00200247
0.00200245
0.00200242
0.0020024
0.00200238
0.00200236
0.00200234
0.00200232
0.00200229
0.00200227
0.00200225
0.00200223
0.00200221
0.00200219
0.00200217
0.00200215
0.00200213
0.00200211
0.00200208
0.00200206
0.00200204
0.00200202
0.002002
0.00200198
0.00200196
0.00200194
0.00200192
0.0020019
0.00200188
0.00200186
0.00200184
0.00200182
0.0020018
0.00200178
0.00200176
0.00200174
0.00200172
0.0020017
0.00200168
0.00200166
0.00200164
0.00200162
0.00200161
0.00200159
0.00200157
0.00200155
0.00200153
0.00200151
0.00200149
0.00200147
0.00200145
0.00200143
0.00200142
0.0020014
0.00200138
0.00200136
0.00200134
0.00200132
0.0020013
0.00200129
0.00200127
0.00200125
0.00200123
0.00200121
0.0020012
0.00200118
0.00200116
0.00200114
0.00200112
0.00200111
0.00200109
0.00200107
0.00200105
0.00200104
0.00200102
0.002001
0.00200098
0.00200097
0.00200095
0.00200093
0.00200091
0.0020009
0.00200088
0.00200086
0.00200085
0.00200083
0.00200081
0.0020008
0.00200078
0.00200076
0.00200075
0.00200073
0.00200071
0.0020007
0.00200068
0.00200066
0.00200065
0.00200063
0.00200061
0.0020006
0.00200058
0.00200057
0.00200055
0.00200053
0.00200052
0.0020005
0.00200049
0.00200047
0.00200045
0.00200044
0.00200042
0.00200041
0.00200039
0.00200038
0.00200036
0.00200035
0.00200033
0.00200031
0.0020003
0.00200028
0.00200027
0.00200025
0.00200024
0.00200022
0.00200021
0.00200019
0.00200018
0.00200016
0.00200015
0.00200013
0.00200012
0.0020001
0.00200009
0.00200008
0.00200006
0.00200005
0.00200003
0.00200002
0.002
0.00199999
0.00199997
0.00199996
0.00199995
0.00199994
0.002
)
;

boundaryField
{
    top
    {
        type            uniformInletOutlet;
        uniformInletValue constant 0.002;
        value           uniform 0.002;
    }
    left
    {
        type            empty;
    }
    right
    {
        type            empty;
    }
    front
    {
        type            empty;
    }
    back
    {
        type            empty;
    }
    bottom
    {
        type            zeroGradient;
    }
}


// ************************************************************************* //
