/*--------------------------------*- C++ -*----------------------------------*\
  =========                 |
  \\      /  F ield         | OpenFOAM: The Open Source CFD Toolbox
   \\    /   O peration     | Website:  https://openfoam.org
    \\  /    A nd           | Version:  7
     \\/     M anipulation  |
\*---------------------------------------------------------------------------*/
FoamFile
{
    version     2.0;
    format      ascii;
    class       volScalarField;
    location    "0.00000";
    object      O2;
}
// * * * * * * * * * * * * * * * * * * * * * * * * * * * * * * * * * * * * * //

dimensions      [1 -3 0 0 0 0 0];

internalField   nonuniform List<scalar> 
200
(
0.00806949
0.00807221
0.00807404
0.00807585
0.00807768
0.00807952
0.00808137
0.00808322
0.00808509
0.00808696
0.00808885
0.00809073
0.00809264
0.00809455
0.00809647
0.0080984
0.00810034
0.00810229
0.00810426
0.00810622
0.00810821
0.0081102
0.0081122
0.00811421
0.00811624
0.00811827
0.00812032
0.00812238
0.00812445
0.00812653
0.00812863
0.00813073
0.00813285
0.00813497
0.00813712
0.00813927
0.00814144
0.00814361
0.00814581
0.00814801
0.00815024
0.00815246
0.00815471
0.00815697
0.00815925
0.00816153
0.00816384
0.00816615
0.00816849
0.00817083
0.0081732
0.00817557
0.00817797
0.00818038
0.00818281
0.00818524
0.00818771
0.00819018
0.00819267
0.00819518
0.00819771
0.00820025
0.00820282
0.00820539
0.00820799
0.00821061
0.00821325
0.0082159
0.00821858
0.00822127
0.00822399
0.00822672
0.00822948
0.00823226
0.00823506
0.00823788
0.00824073
0.00824359
0.00824648
0.00824938
0.00825232
0.00825528
0.00825826
0.00826126
0.0082643
0.00826735
0.00827044
0.00827354
0.00827668
0.00827984
0.00828303
0.00828624
0.00828949
0.00829276
0.00829607
0.00829939
0.00830276
0.00830615
0.00830958
0.00831303
0.00831652
0.00832003
0.00832359
0.00832717
0.0083308
0.00833445
0.00833814
0.00834186
0.00834563
0.00834943
0.00835327
0.00835714
0.00836107
0.00836502
0.00836902
0.00837305
0.00837714
0.00838126
0.00838543
0.00838963
0.0083939
0.00839819
0.00840255
0.00840694
0.00841139
0.00841588
0.00842043
0.00842502
0.00842968
0.00843438
0.00843914
0.00844395
0.00844882
0.00845374
0.00845873
0.00846377
0.00846888
0.00847404
0.00847928
0.00848457
0.00848994
0.00849536
0.00850086
0.00850642
0.00851207
0.00851777
0.00852356
0.00852941
0.00853536
0.00854137
0.00854747
0.00855364
0.00855991
0.00856625
0.00857269
0.00857921
0.00858583
0.00859253
0.00859933
0.00860623
0.00861323
0.00862032
0.00862753
0.00863483
0.00864225
0.00864977
0.00865742
0.00866516
0.00867304
0.00868102
0.00868914
0.00869737
0.00870575
0.00871424
0.00872288
0.00873164
0.00874056
0.0087496
0.00875881
0.00876816
0.00877767
0.00878732
0.00879715
0.00880714
0.0088173
0.00882762
0.00883813
0.00884882
0.00885969
0.00887075
0.00888201
0.00889346
0.00890513
0.00891699
0.00892907
0.00894137
0.0089539
0.00896665
0.00897968
0.00899329
)
;

boundaryField
{
    top
    {
        type            uniformInletOutlet;
        uniformInletValue constant 0.009;
        value           uniform 0.00899329;
    }
    left
    {
        type            empty;
    }
    right
    {
        type            empty;
    }
    front
    {
        type            empty;
    }
    back
    {
        type            empty;
    }
    bottom
    {
        type            zeroGradient;
    }
}


// ************************************************************************* //
