/*--------------------------------*- C++ -*----------------------------------*\
  =========                 |
  \\      /  F ield         | OpenFOAM: The Open Source CFD Toolbox
   \\    /   O peration     | Website:  https://openfoam.org
    \\  /    A nd           | Version:  7
     \\/     M anipulation  |
\*---------------------------------------------------------------------------*/
FoamFile
{
    version     2.0;
    format      ascii;
    class       volScalarField;
    location    "0.00000";
    object      perm_clog;
}
// * * * * * * * * * * * * * * * * * * * * * * * * * * * * * * * * * * * * * //

dimensions      [0 0 0 0 0 0 0];

internalField   nonuniform List<scalar> 
200
(
0.994105
0.994078
0.994056
0.994035
0.994013
0.993991
0.993969
0.993947
0.993925
0.993902
0.993879
0.993856
0.993833
0.993809
0.993785
0.993761
0.993737
0.993713
0.993688
0.993663
0.993638
0.993612
0.993587
0.993561
0.993534
0.993508
0.993481
0.993454
0.993427
0.993399
0.993371
0.993343
0.993314
0.993286
0.993257
0.993227
0.993198
0.993168
0.993137
0.993107
0.993076
0.993045
0.993013
0.992981
0.992949
0.992916
0.992883
0.99285
0.992816
0.992782
0.992748
0.992713
0.992678
0.992642
0.992606
0.99257
0.992533
0.992496
0.992458
0.99242
0.992382
0.992343
0.992304
0.992264
0.992224
0.992183
0.992142
0.992101
0.992058
0.992016
0.991973
0.991929
0.991885
0.991841
0.991796
0.99175
0.991704
0.991657
0.99161
0.991562
0.991513
0.991464
0.991415
0.991365
0.991314
0.991262
0.99121
0.991158
0.991104
0.99105
0.990996
0.99094
0.990884
0.990827
0.99077
0.990712
0.990653
0.990593
0.990533
0.990471
0.990409
0.990347
0.990283
0.990218
0.990153
0.990087
0.99002
0.989952
0.989883
0.989814
0.989743
0.989671
0.989599
0.989525
0.989451
0.989375
0.989299
0.989221
0.989142
0.989063
0.988982
0.9889
0.988817
0.988732
0.988647
0.98856
0.988472
0.988383
0.988293
0.988201
0.988108
0.988014
0.987918
0.987821
0.987722
0.987622
0.987521
0.987418
0.987314
0.987208
0.9871
0.986991
0.98688
0.986768
0.986654
0.986538
0.98642
0.986301
0.98618
0.986057
0.985932
0.985805
0.985676
0.985545
0.985412
0.985277
0.98514
0.985
0.984859
0.984715
0.984569
0.98442
0.98427
0.984116
0.983961
0.983802
0.983641
0.983478
0.983312
0.983143
0.982971
0.982796
0.982619
0.982439
0.982255
0.982069
0.981879
0.981686
0.98149
0.98129
0.981087
0.980881
0.980671
0.980457
0.98024
0.980019
0.979794
0.979565
0.979332
0.979095
0.978854
0.978608
0.978359
0.978104
0.977846
0.977582
0.977314
0.977041
0.976763
0.9765
)
;

boundaryField
{
    top
    {
        type            calculated;
        value           uniform 0.9765;
    }
    left
    {
        type            empty;
    }
    right
    {
        type            empty;
    }
    front
    {
        type            empty;
    }
    back
    {
        type            empty;
    }
    bottom
    {
        type            calculated;
        value           uniform 0.994105;
    }
}


// ************************************************************************* //
