/*--------------------------------*- C++ -*----------------------------------*\
  =========                 |
  \\      /  F ield         | OpenFOAM: The Open Source CFD Toolbox
   \\    /   O peration     | Website:  https://openfoam.org
    \\  /    A nd           | Version:  7
     \\/     M anipulation  |
\*---------------------------------------------------------------------------*/
FoamFile
{
    version     2.0;
    format      ascii;
    class       surfaceScalarField;
    location    "0.00000";
    object      phi;
}
// * * * * * * * * * * * * * * * * * * * * * * * * * * * * * * * * * * * * * //

dimensions      [0 3 -1 0 0 0 0];

internalField   nonuniform List<scalar> 
199
(
-1.61164e-06
-1.61163e-06
-1.61164e-06
-1.61164e-06
-1.61163e-06
-1.61164e-06
-1.61164e-06
-1.61164e-06
-1.61164e-06
-1.61163e-06
-1.61163e-06
-1.61164e-06
-1.61164e-06
-1.61164e-06
-1.61164e-06
-1.61164e-06
-1.61164e-06
-1.61164e-06
-1.61164e-06
-1.61164e-06
-1.61164e-06
-1.61164e-06
-1.61164e-06
-1.61164e-06
-1.61163e-06
-1.61164e-06
-1.61164e-06
-1.61164e-06
-1.61164e-06
-1.61164e-06
-1.61164e-06
-1.61164e-06
-1.61164e-06
-1.61164e-06
-1.61164e-06
-1.61164e-06
-1.61164e-06
-1.61164e-06
-1.61164e-06
-1.61164e-06
-1.61164e-06
-1.61164e-06
-1.61164e-06
-1.61164e-06
-1.61164e-06
-1.61164e-06
-1.61164e-06
-1.61165e-06
-1.61165e-06
-1.61164e-06
-1.61164e-06
-1.61164e-06
-1.61165e-06
-1.61164e-06
-1.61164e-06
-1.61164e-06
-1.61164e-06
-1.61164e-06
-1.61165e-06
-1.61164e-06
-1.61164e-06
-1.61164e-06
-1.61164e-06
-1.61164e-06
-1.61164e-06
-1.61164e-06
-1.61164e-06
-1.61164e-06
-1.61164e-06
-1.61164e-06
-1.61164e-06
-1.61164e-06
-1.61164e-06
-1.61165e-06
-1.61164e-06
-1.61164e-06
-1.61164e-06
-1.61165e-06
-1.61165e-06
-1.61164e-06
-1.61164e-06
-1.61164e-06
-1.61164e-06
-1.61164e-06
-1.61164e-06
-1.61164e-06
-1.61164e-06
-1.61164e-06
-1.61165e-06
-1.61164e-06
-1.61164e-06
-1.61164e-06
-1.61164e-06
-1.61164e-06
-1.61165e-06
-1.61164e-06
-1.61164e-06
-1.61164e-06
-1.61164e-06
-1.61164e-06
-1.61165e-06
-1.61164e-06
-1.61164e-06
-1.61164e-06
-1.61164e-06
-1.61164e-06
-1.61164e-06
-1.61164e-06
-1.61164e-06
-1.61164e-06
-1.61164e-06
-1.61164e-06
-1.61164e-06
-1.61164e-06
-1.61164e-06
-1.61164e-06
-1.61163e-06
-1.61164e-06
-1.61164e-06
-1.61164e-06
-1.61164e-06
-1.61163e-06
-1.61163e-06
-1.61164e-06
-1.61163e-06
-1.61163e-06
-1.61164e-06
-1.61163e-06
-1.61163e-06
-1.61163e-06
-1.61163e-06
-1.61163e-06
-1.61163e-06
-1.61162e-06
-1.61163e-06
-1.61163e-06
-1.61163e-06
-1.61162e-06
-1.61162e-06
-1.61162e-06
-1.61162e-06
-1.61162e-06
-1.61163e-06
-1.61163e-06
-1.61162e-06
-1.61162e-06
-1.61162e-06
-1.61162e-06
-1.61162e-06
-1.61162e-06
-1.61161e-06
-1.61161e-06
-1.61161e-06
-1.61161e-06
-1.61161e-06
-1.61161e-06
-1.61161e-06
-1.61161e-06
-1.6116e-06
-1.6116e-06
-1.6116e-06
-1.6116e-06
-1.6116e-06
-1.6116e-06
-1.61159e-06
-1.61159e-06
-1.61159e-06
-1.61159e-06
-1.61159e-06
-1.61159e-06
-1.61159e-06
-1.61158e-06
-1.61158e-06
-1.61158e-06
-1.61157e-06
-1.61157e-06
-1.61157e-06
-1.61157e-06
-1.61157e-06
-1.61157e-06
-1.61156e-06
-1.61156e-06
-1.61156e-06
-1.61155e-06
-1.61155e-06
-1.61155e-06
-1.61154e-06
-1.61154e-06
-1.61154e-06
-1.61153e-06
-1.61153e-06
-1.61152e-06
-1.61153e-06
-1.61152e-06
-1.61152e-06
-1.61151e-06
-1.61151e-06
-1.6115e-06
-1.07429e-06
)
;

boundaryField
{
    top
    {
        type            calculated;
        value           uniform -0;
    }
    left
    {
        type            empty;
        value           nonuniform 0();
    }
    right
    {
        type            empty;
        value           nonuniform 0();
    }
    front
    {
        type            empty;
        value           nonuniform 0();
    }
    back
    {
        type            empty;
        value           nonuniform 0();
    }
    bottom
    {
        type            calculated;
        value           uniform 1.61164e-06;
    }
}


// ************************************************************************* //
