/*--------------------------------*- C++ -*----------------------------------*\
  =========                 |
  \\      /  F ield         | OpenFOAM: The Open Source CFD Toolbox
   \\    /   O peration     | Website:  https://openfoam.org
    \\  /    A nd           | Version:  7
     \\/     M anipulation  |
\*---------------------------------------------------------------------------*/
FoamFile
{
    version     2.0;
    format      ascii;
    class       volScalarField;
    location    "863997.597";
    object      POCr;
}
// * * * * * * * * * * * * * * * * * * * * * * * * * * * * * * * * * * * * * //

dimensions      [1 -3 0 0 0 0 0];

internalField   nonuniform List<scalar> 
200
(
0.000151942
0.000151174
0.000150661
0.000150144
0.000149628
0.00014911
0.000148591
0.00014807
0.000147549
0.000147026
0.000146502
0.000145976
0.00014545
0.000144921
0.000144392
0.00014386
0.000143329
0.000142794
0.00014226
0.000141723
0.000141186
0.000140646
0.000140106
0.000139563
0.00013902
0.000138474
0.000137928
0.00013738
0.000136831
0.000136279
0.000135727
0.000135173
0.000134618
0.00013406
0.000133502
0.000132941
0.000132379
0.000131815
0.00013125
0.000130683
0.000130115
0.000129544
0.000128973
0.000128398
0.000127824
0.000127246
0.000126668
0.000126086
0.000125505
0.00012492
0.000124334
0.000123746
0.000123157
0.000122565
0.000121972
0.000121376
0.000120779
0.000120179
0.000119579
0.000118975
0.000118371
0.000117763
0.000117154
0.000116542
0.00011593
0.000115314
0.000114697
0.000114077
0.000113456
0.000112831
0.000112206
0.000111577
0.000110947
0.000110314
0.000109679
0.000109042
0.000108403
0.00010776
0.000107116
0.000106469
0.000105821
0.000105169
0.000104515
0.000103858
0.0001032
0.000102538
0.000101875
0.000101207
0.000100539
9.98666e-05
9.91927e-05
9.85151e-05
9.78358e-05
9.71527e-05
9.6468e-05
9.57793e-05
9.5089e-05
9.43947e-05
9.36986e-05
9.29986e-05
9.22967e-05
9.15907e-05
9.08828e-05
9.01708e-05
8.94568e-05
8.87386e-05
8.80185e-05
8.7294e-05
8.65675e-05
8.58366e-05
8.51035e-05
8.43661e-05
8.36264e-05
8.28823e-05
8.21359e-05
8.13849e-05
8.06315e-05
7.98735e-05
7.91131e-05
7.83479e-05
7.75802e-05
7.68078e-05
7.60327e-05
7.52528e-05
7.44701e-05
7.36825e-05
7.28922e-05
7.20967e-05
7.12984e-05
7.0495e-05
6.96886e-05
6.8877e-05
6.80624e-05
6.72424e-05
6.64193e-05
6.55907e-05
6.47589e-05
6.39216e-05
6.30809e-05
6.22346e-05
6.13848e-05
6.05293e-05
5.96702e-05
5.88053e-05
5.79366e-05
5.70621e-05
5.61837e-05
5.52992e-05
5.44109e-05
5.35163e-05
5.26177e-05
5.17127e-05
5.08036e-05
4.9888e-05
4.89682e-05
4.80417e-05
4.71108e-05
4.61732e-05
4.52309e-05
4.42819e-05
4.33281e-05
4.23672e-05
4.14015e-05
4.04287e-05
3.94508e-05
3.84656e-05
3.74752e-05
3.64773e-05
3.5474e-05
3.44632e-05
3.34467e-05
3.24225e-05
3.13926e-05
3.03546e-05
2.93108e-05
2.82588e-05
2.72007e-05
2.61343e-05
2.50616e-05
2.39803e-05
2.28926e-05
2.17961e-05
2.0693e-05
1.95808e-05
1.84618e-05
1.73336e-05
1.61982e-05
1.50535e-05
1.39014e-05
1.27397e-05
1.15704e-05
1.03913e-05
9.20428e-06
8.00718e-06
6.802e-06
5.58645e-06
4.36256e-06
3.12803e-06
1.88488e-06
6.30883e-07
)
;

boundaryField
{
    top
    {
        type            uniformInletOutlet;
        uniformInletValue constant 0;
        value           uniform 0;
    }
    left
    {
        type            empty;
    }
    right
    {
        type            empty;
    }
    front
    {
        type            empty;
    }
    back
    {
        type            empty;
    }
    bottom
    {
        type            zeroGradient;
    }
}


// ************************************************************************* //
