/*--------------------------------*- C++ -*----------------------------------*\
  =========                 |
  \\      /  F ield         | OpenFOAM: The Open Source CFD Toolbox
   \\    /   O peration     | Website:  https://openfoam.org
    \\  /    A nd           | Version:  7
     \\/     M anipulation  |
\*---------------------------------------------------------------------------*/
FoamFile
{
    version     2.0;
    format      ascii;
    class       volScalarField;
    location    "0.00000";
    object      porosity;
}
// * * * * * * * * * * * * * * * * * * * * * * * * * * * * * * * * * * * * * //

dimensions      [0 0 0 0 0 0 0];

internalField   nonuniform List<scalar> 
200
(
0.357492
0.357489
0.357487
0.357485
0.357484
0.357482
0.35748
0.357478
0.357476
0.357474
0.357472
0.35747
0.357468
0.357466
0.357464
0.357462
0.35746
0.357458
0.357455
0.357453
0.357451
0.357449
0.357447
0.357444
0.357442
0.35744
0.357438
0.357435
0.357433
0.35743
0.357428
0.357426
0.357423
0.357421
0.357418
0.357416
0.357413
0.35741
0.357408
0.357405
0.357403
0.3574
0.357397
0.357394
0.357392
0.357389
0.357386
0.357383
0.35738
0.357377
0.357374
0.357371
0.357368
0.357365
0.357362
0.357359
0.357356
0.357352
0.357349
0.357346
0.357343
0.357339
0.357336
0.357332
0.357329
0.357325
0.357322
0.357318
0.357315
0.357311
0.357307
0.357303
0.3573
0.357296
0.357292
0.357288
0.357284
0.35728
0.357276
0.357272
0.357267
0.357263
0.357259
0.357254
0.35725
0.357246
0.357241
0.357237
0.357232
0.357227
0.357223
0.357218
0.357213
0.357208
0.357203
0.357198
0.357193
0.357188
0.357182
0.357177
0.357172
0.357166
0.357161
0.357155
0.35715
0.357144
0.357138
0.357132
0.357126
0.35712
0.357114
0.357108
0.357101
0.357095
0.357089
0.357082
0.357075
0.357069
0.357062
0.357055
0.357048
0.357041
0.357034
0.357026
0.357019
0.357011
0.357004
0.356996
0.356988
0.35698
0.356972
0.356964
0.356956
0.356947
0.356939
0.35693
0.356921
0.356912
0.356903
0.356894
0.356885
0.356875
0.356866
0.356856
0.356846
0.356836
0.356826
0.356815
0.356805
0.356794
0.356783
0.356772
0.356761
0.35675
0.356738
0.356726
0.356714
0.356702
0.35669
0.356677
0.356665
0.356652
0.356639
0.356625
0.356612
0.356598
0.356584
0.35657
0.356555
0.356541
0.356526
0.35651
0.356495
0.356479
0.356463
0.356447
0.35643
0.356414
0.356397
0.356379
0.356361
0.356343
0.356325
0.356307
0.356288
0.356268
0.356249
0.356229
0.356208
0.356188
0.356167
0.356145
0.356123
0.356101
0.356079
0.356056
0.356032
0.356008
0.355984
0.355961
)
;

boundaryField
{
    top
    {
        type            zeroGradient;
    }
    left
    {
        type            empty;
    }
    right
    {
        type            empty;
    }
    front
    {
        type            empty;
    }
    back
    {
        type            empty;
    }
    bottom
    {
        type            zeroGradient;
    }
}


// ************************************************************************* //
