/*--------------------------------*- C++ -*----------------------------------*\
  =========                 |
  \\      /  F ield         | OpenFOAM: The Open Source CFD Toolbox
   \\    /   O peration     | Website:  https://openfoam.org
    \\  /    A nd           | Version:  7
     \\/     M anipulation  |
\*---------------------------------------------------------------------------*/
FoamFile
{
    version     2.0;
    format      ascii;
    class       volScalarField;
    location    "0.00000";
    object      rDN;
}
// * * * * * * * * * * * * * * * * * * * * * * * * * * * * * * * * * * * * * //

dimensions      [0 0 -1 0 0 0 0];

internalField   nonuniform List<scalar> 
200
(
5.89194e-06
5.8962e-06
5.89904e-06
5.9019e-06
5.90475e-06
5.90761e-06
5.91045e-06
5.91333e-06
5.91618e-06
5.91905e-06
5.9219e-06
5.92478e-06
5.92764e-06
5.93051e-06
5.93338e-06
5.93626e-06
5.93913e-06
5.94201e-06
5.94488e-06
5.94777e-06
5.95063e-06
5.95353e-06
5.9564e-06
5.95929e-06
5.96217e-06
5.96506e-06
5.96794e-06
5.97084e-06
5.97372e-06
5.97662e-06
5.97949e-06
5.9824e-06
5.98528e-06
5.98819e-06
5.99107e-06
5.99398e-06
5.99686e-06
5.99977e-06
6.00266e-06
6.00556e-06
6.00844e-06
6.01136e-06
6.01425e-06
6.01714e-06
6.02003e-06
6.02294e-06
6.02583e-06
6.02873e-06
6.03162e-06
6.03453e-06
6.03741e-06
6.04032e-06
6.0432e-06
6.0461e-06
6.04898e-06
6.05189e-06
6.05477e-06
6.05766e-06
6.06054e-06
6.06343e-06
6.06631e-06
6.0692e-06
6.07207e-06
6.07496e-06
6.07783e-06
6.0807e-06
6.08357e-06
6.08645e-06
6.08931e-06
6.09218e-06
6.09503e-06
6.0979e-06
6.10074e-06
6.10359e-06
6.10643e-06
6.10928e-06
6.11211e-06
6.11495e-06
6.11778e-06
6.12061e-06
6.12342e-06
6.12624e-06
6.12905e-06
6.13186e-06
6.13464e-06
6.13744e-06
6.14022e-06
6.14301e-06
6.14577e-06
6.14854e-06
6.1513e-06
6.15405e-06
6.15679e-06
6.15953e-06
6.16224e-06
6.16497e-06
6.16767e-06
6.17038e-06
6.17306e-06
6.17574e-06
6.17841e-06
6.18107e-06
6.18371e-06
6.18635e-06
6.18896e-06
6.19158e-06
6.19417e-06
6.19677e-06
6.19933e-06
6.20189e-06
6.20443e-06
6.20696e-06
6.20946e-06
6.21197e-06
6.21445e-06
6.21692e-06
6.21936e-06
6.22179e-06
6.22419e-06
6.2266e-06
6.22895e-06
6.23131e-06
6.23363e-06
6.23595e-06
6.23823e-06
6.2405e-06
6.24273e-06
6.24495e-06
6.24714e-06
6.24931e-06
6.25144e-06
6.25356e-06
6.25564e-06
6.2577e-06
6.25972e-06
6.26172e-06
6.26368e-06
6.26562e-06
6.26751e-06
6.26938e-06
6.2712e-06
6.273e-06
6.27476e-06
6.27649e-06
6.27815e-06
6.27981e-06
6.2814e-06
6.28296e-06
6.28447e-06
6.28594e-06
6.28736e-06
6.28874e-06
6.29006e-06
6.29134e-06
6.29257e-06
6.29374e-06
6.29486e-06
6.29593e-06
6.29693e-06
6.29788e-06
6.29877e-06
6.2996e-06
6.30036e-06
6.30106e-06
6.30169e-06
6.30225e-06
6.30274e-06
6.30317e-06
6.30351e-06
6.30379e-06
6.30398e-06
6.30409e-06
6.30411e-06
6.30407e-06
6.30392e-06
6.3037e-06
6.30337e-06
6.30297e-06
6.30245e-06
6.30184e-06
6.30113e-06
6.30033e-06
6.2994e-06
6.29838e-06
6.29724e-06
6.296e-06
6.29462e-06
6.29313e-06
6.29153e-06
6.28979e-06
6.28792e-06
6.28592e-06
6.28379e-06
6.28151e-06
6.2791e-06
6.27654e-06
6.27383e-06
6.27097e-06
6.26793e-06
6.26464e-06
)
;

boundaryField
{
    top
    {
        type            calculated;
        value           uniform 6.26464e-06;
    }
    left
    {
        type            empty;
    }
    right
    {
        type            empty;
    }
    front
    {
        type            empty;
    }
    back
    {
        type            empty;
    }
    bottom
    {
        type            calculated;
        value           uniform 5.89194e-06;
    }
}


// ************************************************************************* //
