/*--------------------------------*- C++ -*----------------------------------*\
  =========                 |
  \\      /  F ield         | OpenFOAM: The Open Source CFD Toolbox
   \\    /   O peration     | Website:  https://openfoam.org
    \\  /    A nd           | Version:  7
     \\/     M anipulation  |
\*---------------------------------------------------------------------------*/
FoamFile
{
    version     2.0;
    format      ascii;
    class       volScalarField;
    location    "863997.597";
    object      rDN;
}
// * * * * * * * * * * * * * * * * * * * * * * * * * * * * * * * * * * * * * //

dimensions      [0 0 -1 0 0 0 0];

internalField   nonuniform List<scalar> 
200
(
5.89196e-06
5.89623e-06
5.89906e-06
5.90192e-06
5.90477e-06
5.90763e-06
5.91048e-06
5.91335e-06
5.9162e-06
5.91907e-06
5.92193e-06
5.9248e-06
5.92766e-06
5.93054e-06
5.9334e-06
5.93628e-06
5.93915e-06
5.94203e-06
5.9449e-06
5.94779e-06
5.95066e-06
5.95355e-06
5.95642e-06
5.95932e-06
5.96219e-06
5.96509e-06
5.96796e-06
5.97086e-06
5.97374e-06
5.97664e-06
5.97952e-06
5.98242e-06
5.98531e-06
5.98821e-06
5.99109e-06
5.994e-06
5.99688e-06
5.99979e-06
6.00268e-06
6.00558e-06
6.00847e-06
6.01137e-06
6.01426e-06
6.01717e-06
6.02006e-06
6.02296e-06
6.02585e-06
6.02875e-06
6.03164e-06
6.03455e-06
6.03743e-06
6.04034e-06
6.04322e-06
6.04612e-06
6.04901e-06
6.0519e-06
6.05479e-06
6.05768e-06
6.06056e-06
6.06345e-06
6.06633e-06
6.06922e-06
6.07209e-06
6.07498e-06
6.07785e-06
6.08073e-06
6.08359e-06
6.08647e-06
6.08932e-06
6.09219e-06
6.09505e-06
6.09791e-06
6.10076e-06
6.10361e-06
6.10645e-06
6.1093e-06
6.11213e-06
6.11497e-06
6.11779e-06
6.12063e-06
6.12344e-06
6.12626e-06
6.12906e-06
6.13187e-06
6.13466e-06
6.13746e-06
6.14024e-06
6.14302e-06
6.14579e-06
6.14856e-06
6.15131e-06
6.15407e-06
6.1568e-06
6.15954e-06
6.16226e-06
6.16499e-06
6.16769e-06
6.17039e-06
6.17307e-06
6.17576e-06
6.17842e-06
6.18108e-06
6.18372e-06
6.18636e-06
6.18898e-06
6.1916e-06
6.19419e-06
6.19678e-06
6.19934e-06
6.20191e-06
6.20444e-06
6.20698e-06
6.20948e-06
6.21198e-06
6.21446e-06
6.21693e-06
6.21937e-06
6.2218e-06
6.2242e-06
6.2266e-06
6.22896e-06
6.23132e-06
6.23364e-06
6.23596e-06
6.23824e-06
6.24051e-06
6.24274e-06
6.24496e-06
6.24715e-06
6.24932e-06
6.25145e-06
6.25357e-06
6.25565e-06
6.25771e-06
6.25973e-06
6.26173e-06
6.26369e-06
6.26562e-06
6.26752e-06
6.26939e-06
6.27121e-06
6.27301e-06
6.27477e-06
6.27649e-06
6.27817e-06
6.27981e-06
6.2814e-06
6.28297e-06
6.28447e-06
6.28595e-06
6.28737e-06
6.28875e-06
6.29007e-06
6.29135e-06
6.29257e-06
6.29375e-06
6.29486e-06
6.29593e-06
6.29693e-06
6.29789e-06
6.29877e-06
6.2996e-06
6.30036e-06
6.30106e-06
6.30169e-06
6.30226e-06
6.30275e-06
6.30317e-06
6.30351e-06
6.30379e-06
6.30398e-06
6.30409e-06
6.30412e-06
6.30407e-06
6.30392e-06
6.3037e-06
6.30337e-06
6.30296e-06
6.30245e-06
6.30185e-06
6.30113e-06
6.30033e-06
6.2994e-06
6.29838e-06
6.29724e-06
6.29599e-06
6.29462e-06
6.29314e-06
6.29152e-06
6.28979e-06
6.28792e-06
6.28593e-06
6.28379e-06
6.28152e-06
6.2791e-06
6.27655e-06
6.27383e-06
6.27098e-06
6.26793e-06
6.26464e-06
)
;

boundaryField
{
    top
    {
        type            calculated;
        value           uniform 6.26329e-06;
    }
    left
    {
        type            empty;
    }
    right
    {
        type            empty;
    }
    front
    {
        type            empty;
    }
    back
    {
        type            empty;
    }
    bottom
    {
        type            calculated;
        value           uniform 5.89196e-06;
    }
}


// ************************************************************************* //
