/*--------------------------------*- C++ -*----------------------------------*\
  =========                 |
  \\      /  F ield         | OpenFOAM: The Open Source CFD Toolbox
   \\    /   O peration     | Website:  https://openfoam.org
    \\  /    A nd           | Version:  7
     \\/     M anipulation  |
\*---------------------------------------------------------------------------*/
FoamFile
{
    version     2.0;
    format      ascii;
    class       volScalarField;
    location    "863997.597";
    object      rH;
}
// * * * * * * * * * * * * * * * * * * * * * * * * * * * * * * * * * * * * * //

dimensions      [0 0 -1 0 0 0 0];

internalField   nonuniform List<scalar> 
200
(
1.63717e-05
1.64306e-05
1.64699e-05
1.65097e-05
1.65495e-05
1.65897e-05
1.663e-05
1.66707e-05
1.67115e-05
1.67526e-05
1.67938e-05
1.68354e-05
1.68771e-05
1.69192e-05
1.69614e-05
1.7004e-05
1.70467e-05
1.70898e-05
1.7133e-05
1.71766e-05
1.72203e-05
1.72644e-05
1.73087e-05
1.73533e-05
1.73981e-05
1.74433e-05
1.74887e-05
1.75344e-05
1.75803e-05
1.76266e-05
1.76731e-05
1.772e-05
1.77671e-05
1.78146e-05
1.78622e-05
1.79103e-05
1.79586e-05
1.80073e-05
1.80562e-05
1.81056e-05
1.81551e-05
1.82051e-05
1.82553e-05
1.83059e-05
1.83568e-05
1.84081e-05
1.84596e-05
1.85116e-05
1.85639e-05
1.86165e-05
1.86695e-05
1.87229e-05
1.87766e-05
1.88307e-05
1.88851e-05
1.894e-05
1.89952e-05
1.90508e-05
1.91068e-05
1.91632e-05
1.922e-05
1.92772e-05
1.93348e-05
1.93928e-05
1.94512e-05
1.95101e-05
1.95693e-05
1.96291e-05
1.96892e-05
1.97498e-05
1.98108e-05
1.98723e-05
1.99342e-05
1.99966e-05
2.00594e-05
2.01228e-05
2.01866e-05
2.02509e-05
2.03157e-05
2.0381e-05
2.04468e-05
2.05131e-05
2.05799e-05
2.06472e-05
2.0715e-05
2.07834e-05
2.08523e-05
2.09218e-05
2.09918e-05
2.10624e-05
2.11335e-05
2.12053e-05
2.12775e-05
2.13504e-05
2.14239e-05
2.1498e-05
2.15726e-05
2.16479e-05
2.17238e-05
2.18004e-05
2.18775e-05
2.19554e-05
2.20339e-05
2.2113e-05
2.21928e-05
2.22733e-05
2.23545e-05
2.24364e-05
2.25189e-05
2.26022e-05
2.26862e-05
2.2771e-05
2.28564e-05
2.29427e-05
2.30297e-05
2.31174e-05
2.3206e-05
2.32953e-05
2.33854e-05
2.34764e-05
2.35681e-05
2.36607e-05
2.37541e-05
2.38484e-05
2.39435e-05
2.40395e-05
2.41363e-05
2.42341e-05
2.43328e-05
2.44324e-05
2.45329e-05
2.46344e-05
2.47368e-05
2.48402e-05
2.49445e-05
2.50499e-05
2.51562e-05
2.52636e-05
2.53719e-05
2.54814e-05
2.55918e-05
2.57034e-05
2.5816e-05
2.59297e-05
2.60445e-05
2.61605e-05
2.62775e-05
2.63957e-05
2.65151e-05
2.66357e-05
2.67574e-05
2.68804e-05
2.70046e-05
2.713e-05
2.72566e-05
2.73846e-05
2.75138e-05
2.76443e-05
2.77761e-05
2.79093e-05
2.80438e-05
2.81796e-05
2.83169e-05
2.84555e-05
2.85955e-05
2.8737e-05
2.88799e-05
2.90242e-05
2.917e-05
2.93174e-05
2.94662e-05
2.96165e-05
2.97684e-05
2.99219e-05
3.00769e-05
3.02335e-05
3.03917e-05
3.05515e-05
3.0713e-05
3.08761e-05
3.10409e-05
3.12074e-05
3.13755e-05
3.15454e-05
3.17171e-05
3.18905e-05
3.20656e-05
3.22425e-05
3.24212e-05
3.26018e-05
3.27841e-05
3.29683e-05
3.31544e-05
3.33423e-05
3.35321e-05
3.37238e-05
3.39173e-05
3.41128e-05
3.43104e-05
3.45115e-05
)
;

boundaryField
{
    top
    {
        type            calculated;
        value           uniform 3.46133e-05;
    }
    left
    {
        type            empty;
    }
    right
    {
        type            empty;
    }
    front
    {
        type            empty;
    }
    back
    {
        type            empty;
    }
    bottom
    {
        type            calculated;
        value           uniform 1.63717e-05;
    }
}


// ************************************************************************* //
