/*--------------------------------*- C++ -*----------------------------------*\
  =========                 |
  \\      /  F ield         | OpenFOAM: The Open Source CFD Toolbox
   \\    /   O peration     | Website:  https://openfoam.org
    \\  /    A nd           | Version:  7
     \\/     M anipulation  |
\*---------------------------------------------------------------------------*/
FoamFile
{
    version     2.0;
    format      ascii;
    class       volScalarField;
    location    "0.00000";
    object      rH;
}
// * * * * * * * * * * * * * * * * * * * * * * * * * * * * * * * * * * * * * //

dimensions      [0 0 -1 0 0 0 0];

internalField   nonuniform List<scalar> 
200
(
1.63715e-05
1.64303e-05
1.64696e-05
1.65094e-05
1.65492e-05
1.65895e-05
1.66297e-05
1.66704e-05
1.67112e-05
1.67523e-05
1.67935e-05
1.68351e-05
1.68768e-05
1.69189e-05
1.69611e-05
1.70037e-05
1.70464e-05
1.70895e-05
1.71327e-05
1.71763e-05
1.722e-05
1.72641e-05
1.73084e-05
1.7353e-05
1.73978e-05
1.7443e-05
1.74883e-05
1.75341e-05
1.758e-05
1.76263e-05
1.76728e-05
1.77197e-05
1.77668e-05
1.78143e-05
1.78619e-05
1.791e-05
1.79583e-05
1.8007e-05
1.80559e-05
1.81053e-05
1.81548e-05
1.82048e-05
1.8255e-05
1.83056e-05
1.83564e-05
1.84078e-05
1.84593e-05
1.85113e-05
1.85635e-05
1.86162e-05
1.86692e-05
1.87226e-05
1.87763e-05
1.88304e-05
1.88848e-05
1.89397e-05
1.89949e-05
1.90505e-05
1.91065e-05
1.91629e-05
1.92196e-05
1.92769e-05
1.93344e-05
1.93925e-05
1.94508e-05
1.95097e-05
1.9569e-05
1.96287e-05
1.96888e-05
1.97494e-05
1.98104e-05
1.9872e-05
1.99338e-05
1.99963e-05
2.00591e-05
2.01225e-05
2.01862e-05
2.02506e-05
2.03153e-05
2.03807e-05
2.04464e-05
2.05127e-05
2.05795e-05
2.06469e-05
2.07147e-05
2.07831e-05
2.0852e-05
2.09215e-05
2.09915e-05
2.10621e-05
2.11332e-05
2.12049e-05
2.12772e-05
2.13501e-05
2.14235e-05
2.14976e-05
2.15723e-05
2.16476e-05
2.17235e-05
2.18001e-05
2.18772e-05
2.1955e-05
2.20335e-05
2.21127e-05
2.21925e-05
2.2273e-05
2.23541e-05
2.2436e-05
2.25186e-05
2.26019e-05
2.26859e-05
2.27706e-05
2.28561e-05
2.29424e-05
2.30293e-05
2.31171e-05
2.32056e-05
2.3295e-05
2.33851e-05
2.3476e-05
2.35677e-05
2.36603e-05
2.37537e-05
2.3848e-05
2.39431e-05
2.40391e-05
2.4136e-05
2.42338e-05
2.43324e-05
2.44321e-05
2.45326e-05
2.4634e-05
2.47364e-05
2.48398e-05
2.49442e-05
2.50495e-05
2.51558e-05
2.52632e-05
2.53716e-05
2.5481e-05
2.55915e-05
2.5703e-05
2.58156e-05
2.59294e-05
2.60442e-05
2.61601e-05
2.62772e-05
2.63954e-05
2.65148e-05
2.66354e-05
2.67571e-05
2.68801e-05
2.70043e-05
2.71297e-05
2.72563e-05
2.73843e-05
2.75135e-05
2.7644e-05
2.77758e-05
2.7909e-05
2.80435e-05
2.81794e-05
2.83166e-05
2.84552e-05
2.85953e-05
2.87367e-05
2.88796e-05
2.9024e-05
2.91698e-05
2.93171e-05
2.94659e-05
2.96163e-05
2.97682e-05
2.99216e-05
3.00766e-05
3.02333e-05
3.03915e-05
3.05513e-05
3.07128e-05
3.08759e-05
3.10407e-05
3.12072e-05
3.13754e-05
3.15453e-05
3.17169e-05
3.18903e-05
3.20655e-05
3.22424e-05
3.24211e-05
3.26017e-05
3.2784e-05
3.29683e-05
3.31543e-05
3.33422e-05
3.3532e-05
3.37237e-05
3.39173e-05
3.41128e-05
3.43103e-05
3.45114e-05
)
;

boundaryField
{
    top
    {
        type            calculated;
        value           uniform 3.45114e-05;
    }
    left
    {
        type            empty;
    }
    right
    {
        type            empty;
    }
    front
    {
        type            empty;
    }
    back
    {
        type            empty;
    }
    bottom
    {
        type            calculated;
        value           uniform 1.63715e-05;
    }
}


// ************************************************************************* //
