/*--------------------------------*- C++ -*----------------------------------*\
  =========                 |
  \\      /  F ield         | OpenFOAM: The Open Source CFD Toolbox
   \\    /   O peration     | Website:  https://openfoam.org
    \\  /    A nd           | Version:  7
     \\/     M anipulation  |
\*---------------------------------------------------------------------------*/
FoamFile
{
    version     2.0;
    format      ascii;
    class       volScalarField;
    location    "0.00000";
    object      rN;
}
// * * * * * * * * * * * * * * * * * * * * * * * * * * * * * * * * * * * * * //

dimensions      [0 0 -1 0 0 0 0];

internalField   nonuniform List<scalar> 
200
(
3.44235e-05
3.44435e-05
3.4457e-05
3.44704e-05
3.44839e-05
3.44975e-05
3.45112e-05
3.45249e-05
3.45387e-05
3.45526e-05
3.45665e-05
3.45805e-05
3.45946e-05
3.46088e-05
3.4623e-05
3.46373e-05
3.46517e-05
3.46661e-05
3.46807e-05
3.46953e-05
3.471e-05
3.47248e-05
3.47396e-05
3.47545e-05
3.47696e-05
3.47847e-05
3.47999e-05
3.48151e-05
3.48305e-05
3.48459e-05
3.48614e-05
3.4877e-05
3.48928e-05
3.49085e-05
3.49245e-05
3.49404e-05
3.49565e-05
3.49726e-05
3.49889e-05
3.50052e-05
3.50217e-05
3.50383e-05
3.5055e-05
3.50717e-05
3.50886e-05
3.51055e-05
3.51226e-05
3.51398e-05
3.51571e-05
3.51744e-05
3.5192e-05
3.52095e-05
3.52273e-05
3.52451e-05
3.52631e-05
3.52812e-05
3.52994e-05
3.53177e-05
3.53361e-05
3.53547e-05
3.53734e-05
3.53921e-05
3.54111e-05
3.54301e-05
3.54494e-05
3.54687e-05
3.54882e-05
3.55077e-05
3.55275e-05
3.55473e-05
3.55674e-05
3.55875e-05
3.56079e-05
3.56283e-05
3.56489e-05
3.56696e-05
3.56905e-05
3.57116e-05
3.57328e-05
3.57542e-05
3.57757e-05
3.57974e-05
3.58193e-05
3.58413e-05
3.58635e-05
3.58858e-05
3.59084e-05
3.59311e-05
3.5954e-05
3.5977e-05
3.60003e-05
3.60238e-05
3.60474e-05
3.60712e-05
3.60953e-05
3.61194e-05
3.61439e-05
3.61685e-05
3.61933e-05
3.62183e-05
3.62436e-05
3.6269e-05
3.62948e-05
3.63206e-05
3.63468e-05
3.63731e-05
3.63997e-05
3.64264e-05
3.64535e-05
3.64808e-05
3.65083e-05
3.6536e-05
3.65641e-05
3.65923e-05
3.66209e-05
3.66497e-05
3.66788e-05
3.67081e-05
3.67377e-05
3.67675e-05
3.67977e-05
3.68281e-05
3.68589e-05
3.68899e-05
3.69212e-05
3.69528e-05
3.69848e-05
3.7017e-05
3.70496e-05
3.70825e-05
3.71157e-05
3.71492e-05
3.71831e-05
3.72173e-05
3.72519e-05
3.72868e-05
3.73221e-05
3.73577e-05
3.73938e-05
3.74301e-05
3.74669e-05
3.7504e-05
3.75416e-05
3.75795e-05
3.76179e-05
3.76566e-05
3.76958e-05
3.77353e-05
3.77754e-05
3.78158e-05
3.78567e-05
3.7898e-05
3.79399e-05
3.79821e-05
3.80248e-05
3.8068e-05
3.81117e-05
3.81559e-05
3.82006e-05
3.82458e-05
3.82915e-05
3.83377e-05
3.83845e-05
3.84318e-05
3.84796e-05
3.8528e-05
3.8577e-05
3.86265e-05
3.86767e-05
3.87273e-05
3.87787e-05
3.88306e-05
3.88831e-05
3.89362e-05
3.89901e-05
3.90445e-05
3.90996e-05
3.91553e-05
3.92117e-05
3.92688e-05
3.93266e-05
3.93851e-05
3.94443e-05
3.95042e-05
3.95649e-05
3.96263e-05
3.96885e-05
3.97513e-05
3.9815e-05
3.98795e-05
3.99448e-05
4.00108e-05
4.00777e-05
4.01453e-05
4.02139e-05
4.02832e-05
4.03535e-05
4.04245e-05
4.04966e-05
4.05706e-05
)
;

boundaryField
{
    top
    {
        type            calculated;
        value           uniform 4.05706e-05;
    }
    left
    {
        type            empty;
    }
    right
    {
        type            empty;
    }
    front
    {
        type            empty;
    }
    back
    {
        type            empty;
    }
    bottom
    {
        type            calculated;
        value           uniform 3.44235e-05;
    }
}


// ************************************************************************* //
