/*--------------------------------*- C++ -*----------------------------------*\
  =========                 |
  \\      /  F ield         | OpenFOAM: The Open Source CFD Toolbox
   \\    /   O peration     | Website:  https://openfoam.org
    \\  /    A nd           | Version:  7
     \\/     M anipulation  |
\*---------------------------------------------------------------------------*/
FoamFile
{
    version     2.0;
    format      ascii;
    class       volScalarField;
    location    "863997.597";
    object      rN;
}
// * * * * * * * * * * * * * * * * * * * * * * * * * * * * * * * * * * * * * //

dimensions      [0 0 -1 0 0 0 0];

internalField   nonuniform List<scalar> 
200
(
3.44236e-05
3.44436e-05
3.4457e-05
3.44704e-05
3.4484e-05
3.44976e-05
3.45113e-05
3.4525e-05
3.45388e-05
3.45526e-05
3.45666e-05
3.45806e-05
3.45947e-05
3.46088e-05
3.46231e-05
3.46374e-05
3.46518e-05
3.46662e-05
3.46808e-05
3.46954e-05
3.47101e-05
3.47248e-05
3.47397e-05
3.47546e-05
3.47697e-05
3.47847e-05
3.47999e-05
3.48152e-05
3.48306e-05
3.4846e-05
3.48615e-05
3.48771e-05
3.48929e-05
3.49086e-05
3.49245e-05
3.49405e-05
3.49566e-05
3.49727e-05
3.4989e-05
3.50053e-05
3.50218e-05
3.50384e-05
3.5055e-05
3.50718e-05
3.50887e-05
3.51056e-05
3.51227e-05
3.51398e-05
3.51572e-05
3.51745e-05
3.51921e-05
3.52096e-05
3.52274e-05
3.52452e-05
3.52632e-05
3.52812e-05
3.52995e-05
3.53178e-05
3.53362e-05
3.53547e-05
3.53735e-05
3.53922e-05
3.54112e-05
3.54302e-05
3.54495e-05
3.54688e-05
3.54883e-05
3.55078e-05
3.55276e-05
3.55474e-05
3.55675e-05
3.55876e-05
3.56079e-05
3.56284e-05
3.5649e-05
3.56697e-05
3.56906e-05
3.57117e-05
3.57329e-05
3.57542e-05
3.57758e-05
3.57975e-05
3.58194e-05
3.58414e-05
3.58636e-05
3.58859e-05
3.59085e-05
3.59312e-05
3.59541e-05
3.59771e-05
3.60004e-05
3.60239e-05
3.60475e-05
3.60713e-05
3.60954e-05
3.61196e-05
3.6144e-05
3.61686e-05
3.61934e-05
3.62184e-05
3.62437e-05
3.62691e-05
3.62949e-05
3.63207e-05
3.63469e-05
3.63732e-05
3.63998e-05
3.64265e-05
3.64536e-05
3.64809e-05
3.65084e-05
3.65362e-05
3.65642e-05
3.65924e-05
3.6621e-05
3.66498e-05
3.66789e-05
3.67082e-05
3.67378e-05
3.67676e-05
3.67978e-05
3.68282e-05
3.6859e-05
3.689e-05
3.69214e-05
3.69529e-05
3.69849e-05
3.70171e-05
3.70497e-05
3.70826e-05
3.71158e-05
3.71493e-05
3.71832e-05
3.72174e-05
3.7252e-05
3.72869e-05
3.73222e-05
3.73578e-05
3.73939e-05
3.74302e-05
3.7467e-05
3.75041e-05
3.75417e-05
3.75796e-05
3.7618e-05
3.76567e-05
3.76959e-05
3.77354e-05
3.77755e-05
3.78159e-05
3.78568e-05
3.78981e-05
3.794e-05
3.79822e-05
3.80249e-05
3.80681e-05
3.81118e-05
3.8156e-05
3.82007e-05
3.82459e-05
3.82916e-05
3.83378e-05
3.83846e-05
3.84319e-05
3.84797e-05
3.85281e-05
3.85771e-05
3.86266e-05
3.86768e-05
3.87274e-05
3.87788e-05
3.88306e-05
3.88832e-05
3.89363e-05
3.89901e-05
3.90445e-05
3.90997e-05
3.91554e-05
3.92118e-05
3.92689e-05
3.93267e-05
3.93852e-05
3.94444e-05
3.95043e-05
3.9565e-05
3.96263e-05
3.96885e-05
3.97514e-05
3.98151e-05
3.98795e-05
3.99448e-05
4.00108e-05
4.00777e-05
4.01454e-05
4.02139e-05
4.02832e-05
4.03535e-05
4.04245e-05
4.04966e-05
4.05706e-05
)
;

boundaryField
{
    top
    {
        type            calculated;
        value           uniform 4.06091e-05;
    }
    left
    {
        type            empty;
    }
    right
    {
        type            empty;
    }
    front
    {
        type            empty;
    }
    back
    {
        type            empty;
    }
    bottom
    {
        type            calculated;
        value           uniform 3.44236e-05;
    }
}


// ************************************************************************* //
