/*--------------------------------*- C++ -*----------------------------------*\
  =========                 |
  \\      /  F ield         | OpenFOAM: The Open Source CFD Toolbox
   \\    /   O peration     | Website:  https://openfoam.org
    \\  /    A nd           | Version:  7
     \\/     M anipulation  |
\*---------------------------------------------------------------------------*/
FoamFile
{
    version     2.0;
    format      ascii;
    class       volScalarField;
    location    "863997.597";
    object      tracer;
}
// * * * * * * * * * * * * * * * * * * * * * * * * * * * * * * * * * * * * * //

dimensions      [1 -3 0 0 0 0 0];

internalField   nonuniform List<scalar> 
200
(
0.000999872
0.000999875
0.000999877
0.000999877
0.000999876
0.000999876
0.000999876
0.000999876
0.000999876
0.000999876
0.000999876
0.000999876
0.000999876
0.000999875
0.000999875
0.000999875
0.000999875
0.000999875
0.000999875
0.000999875
0.000999875
0.000999875
0.000999875
0.000999874
0.000999874
0.000999874
0.000999874
0.000999874
0.000999874
0.000999874
0.000999874
0.000999874
0.000999873
0.000999873
0.000999873
0.000999873
0.000999873
0.000999873
0.000999873
0.000999873
0.000999873
0.000999873
0.000999873
0.000999872
0.000999872
0.000999872
0.000999872
0.000999872
0.000999872
0.000999872
0.000999872
0.000999872
0.000999872
0.000999872
0.000999872
0.000999871
0.000999871
0.000999871
0.000999871
0.000999871
0.000999871
0.000999871
0.000999871
0.000999871
0.000999871
0.000999871
0.000999871
0.000999871
0.000999871
0.000999871
0.000999871
0.00099987
0.00099987
0.00099987
0.00099987
0.00099987
0.00099987
0.00099987
0.00099987
0.00099987
0.00099987
0.00099987
0.00099987
0.00099987
0.00099987
0.00099987
0.00099987
0.00099987
0.00099987
0.00099987
0.00099987
0.00099987
0.00099987
0.00099987
0.00099987
0.00099987
0.00099987
0.00099987
0.00099987
0.00099987
0.000999871
0.000999871
0.000999871
0.000999871
0.000999871
0.000999871
0.000999871
0.000999871
0.000999871
0.000999871
0.000999871
0.000999872
0.000999872
0.000999872
0.000999872
0.000999872
0.000999872
0.000999872
0.000999873
0.000999873
0.000999873
0.000999873
0.000999873
0.000999874
0.000999874
0.000999874
0.000999874
0.000999875
0.000999875
0.000999875
0.000999875
0.000999876
0.000999876
0.000999876
0.000999877
0.000999877
0.000999877
0.000999878
0.000999878
0.000999879
0.000999879
0.000999879
0.00099988
0.00099988
0.000999881
0.000999881
0.000999882
0.000999882
0.000999883
0.000999884
0.000999884
0.000999885
0.000999885
0.000999886
0.000999887
0.000999887
0.000999888
0.000999889
0.00099989
0.00099989
0.000999891
0.000999892
0.000999893
0.000999894
0.000999895
0.000999896
0.000999897
0.000999898
0.000999899
0.0009999
0.000999901
0.000999902
0.000999903
0.000999905
0.000999906
0.000999907
0.000999908
0.00099991
0.000999911
0.000999913
0.000999914
0.000999916
0.000999917
0.000999919
0.000999921
0.000999922
0.000999924
0.000999926
0.000999928
0.00099993
0.000999932
0.000999934
0.000999936
0.000999938
0.000999941
0.000999943
0.000999945
0.000999948
0.000999956
0.000999994
)
;

boundaryField
{
    top
    {
        type            uniformInletOutlet;
        uniformInletValue constant 0.001;
        value           uniform 0.001;
    }
    left
    {
        type            empty;
    }
    right
    {
        type            empty;
    }
    front
    {
        type            empty;
    }
    back
    {
        type            empty;
    }
    bottom
    {
        type            zeroGradient;
    }
}


// ************************************************************************* //
