/*--------------------------------*- C++ -*----------------------------------*\
  =========                 |
  \\      /  F ield         | OpenFOAM: The Open Source CFD Toolbox
   \\    /   O peration     | Website:  https://openfoam.org
    \\  /    A nd           | Version:  7
     \\/     M anipulation  |
\*---------------------------------------------------------------------------*/
FoamFile
{
    version     2.0;
    format      ascii;
    class       volVectorField;
    location    "863997.597";
    object      U;
}
// * * * * * * * * * * * * * * * * * * * * * * * * * * * * * * * * * * * * * //

dimensions      [0 1 -1 0 0 0 0];

internalField   nonuniform List<vector> 
200
(
(1.11831e-21 1.11831e-21 -4.02912e-05)
(1.1183e-21 1.1183e-21 -4.02909e-05)
(-1.1183e-21 -0 -4.02909e-05)
(-5.83533e-36 -1.1183e-21 -4.02909e-05)
(1.1183e-21 -1.1183e-21 -4.02909e-05)
(1.1183e-21 1.1183e-21 -4.02909e-05)
(-2.97974e-36 1.1183e-21 -4.02909e-05)
(-1.1183e-21 -0 -4.02909e-05)
(1.1183e-21 -0 -4.02909e-05)
(-1.1183e-21 -1.1183e-21 -4.02909e-05)
(-2.2366e-21 -1.1183e-21 -4.02909e-05)
(2.2366e-21 2.2366e-21 -4.02909e-05)
(2.2366e-21 2.2366e-21 -4.02909e-05)
(-3.3549e-21 -3.3549e-21 -4.0291e-05)
(5.6122e-56 5.6122e-56 -4.0291e-05)
(3.3549e-21 2.2366e-21 -4.0291e-05)
(-2.2366e-21 -2.2366e-21 -4.0291e-05)
(2.48312e-37 1.24156e-37 -4.0291e-05)
(1.1183e-21 1.1183e-21 -4.0291e-05)
(1.86234e-35 2.2366e-21 -4.0291e-05)
(1.1183e-21 -2.48312e-37 -4.0291e-05)
(-0 -2.2366e-21 -4.0291e-05)
(-3.3549e-21 -1.1183e-21 -4.0291e-05)
(-7.39971e-35 1.1183e-21 -4.0291e-05)
(4.4732e-21 2.2366e-21 -4.0291e-05)
(-2.2366e-21 -1.1183e-21 -4.0291e-05)
(-3.3549e-21 -2.2366e-21 -4.0291e-05)
(3.3549e-21 1.1183e-21 -4.0291e-05)
(-7.44937e-35 1.1183e-21 -4.0291e-05)
(-3.3549e-21 -2.2366e-21 -4.0291e-05)
(-0 -1.24156e-37 -4.0291e-05)
(-0 -1.25398e-35 -4.0291e-05)
(2.2366e-21 -1.25398e-35 -4.0291e-05)
(1.1183e-21 1.1183e-21 -4.0291e-05)
(-1.25398e-35 1.1183e-21 -4.0291e-05)
(-1.1183e-21 -1.24156e-37 -4.0291e-05)
(-2.2366e-21 -2.2366e-21 -4.0291e-05)
(3.3549e-21 1.1183e-21 -4.0291e-05)
(2.2366e-21 1.1183e-21 -4.0291e-05)
(-1.24156e-35 -1.24156e-35 -4.0291e-05)
(-2.2366e-21 -1.08113e-56 -4.0291e-05)
(-2.2366e-21 -1.1183e-21 -4.0291e-05)
(-1.25398e-35 -0 -4.0291e-05)
(-0 -0 -4.0291e-05)
(2.2366e-21 -0 -4.0291e-05)
(-1.24156e-35 -1.1183e-21 -4.0291e-05)
(-1.25398e-35 -1.25398e-35 -4.0291e-05)
(-1.1183e-21 -1.24156e-37 -4.0291e-05)
(-4.99109e-35 -2.49554e-35 -4.02911e-05)
(-2.50796e-35 -1.1183e-21 -4.02911e-05)
(-2.2366e-21 -1.1183e-21 -4.02911e-05)
(2.2366e-21 3.3549e-21 -4.02911e-05)
(-3.84152e-56 -1.1183e-21 -4.02911e-05)
(-4.99109e-35 -7.44939e-35 -4.02911e-05)
(4.96626e-35 1.1183e-21 -4.02911e-05)
(-2.2366e-21 -1.1183e-21 -4.02911e-05)
(2.2366e-21 1.1183e-21 -4.02911e-05)
(2.2366e-21 -0 -4.02911e-05)
(-0 1.1183e-21 -4.02911e-05)
(-0 1.1183e-21 -4.02911e-05)
(-0 -1.1183e-21 -4.02911e-05)
(-0 -1.1183e-21 -4.02911e-05)
(-0 1.1183e-21 -4.02911e-05)
(-2.2366e-21 -1.1183e-21 -4.02911e-05)
(-2.2366e-21 -3.35491e-21 -4.02911e-05)
(2.2366e-21 1.1183e-21 -4.02911e-05)
(4.94143e-35 1.1183e-21 -4.02911e-05)
(-2.2366e-21 3.63399e-57 -4.02911e-05)
(-0 -1.1183e-21 -4.02911e-05)
(-1.1183e-21 -1.1183e-21 -4.02911e-05)
(-4.95384e-35 1.1183e-21 -4.02911e-05)
(1.1183e-21 -0 -4.02911e-05)
(-0 -1.1183e-21 -4.02911e-05)
(-1.1183e-21 9.7377e-58 -4.02911e-05)
(1.1183e-21 1.1183e-21 -4.02911e-05)
(3.35491e-21 2.2366e-21 -4.02911e-05)
(-1.1183e-21 -9.93252e-35 -4.02911e-05)
(-2.2366e-21 -1.1183e-21 -4.02911e-05)
(-0 -2.47071e-35 -4.02911e-05)
(-0 -1.1183e-21 -4.02911e-05)
(-0 -0 -4.02911e-05)
(1.1183e-21 1.1183e-21 -4.02911e-05)
(2.2366e-21 2.2366e-21 -4.02911e-05)
(9.94493e-35 9.94493e-35 -4.02911e-05)
(-2.2366e-21 -2.2366e-21 -4.02911e-05)
(-1.1183e-21 -1.1183e-21 -4.02911e-05)
(2.2366e-21 1.1183e-21 -4.02911e-05)
(5.01592e-35 2.50796e-35 -4.02911e-05)
(-1.1183e-21 -2.4583e-35 -4.02911e-05)
(2.2366e-21 1.1183e-21 -4.02911e-05)
(-1.1183e-21 -1.1183e-21 -4.02911e-05)
(-1.48491e-34 1.1183e-21 -4.02911e-05)
(4.96626e-35 1.1183e-21 -4.02911e-05)
(-2.2366e-21 -2.2366e-21 -4.02911e-05)
(-0 -7.43697e-35 -4.02911e-05)
(-0 1.24156e-37 -4.02911e-05)
(2.2366e-21 -4.97867e-35 -4.02911e-05)
(-4.96626e-35 -1.1183e-21 -4.0291e-05)
(-2.2366e-21 -1.1183e-21 -4.0291e-05)
(-0 1.1183e-21 -4.0291e-05)
(-1.1183e-21 -0 -4.0291e-05)
(2.2366e-21 2.2366e-21 -4.0291e-05)
(1.1183e-21 1.9865e-34 -4.0291e-05)
(-2.2366e-21 -2.2366e-21 -4.0291e-05)
(-1.1183e-21 -0 -4.0291e-05)
(1.1183e-21 1.1183e-21 -4.0291e-05)
(1.1183e-21 1.24156e-37 -4.0291e-05)
(-1.1183e-21 -1.1183e-21 -4.0291e-05)
(-1.1183e-21 -0 -4.0291e-05)
(2.2366e-21 1.1183e-21 -4.0291e-05)
(4.96625e-37 1.24156e-37 -4.0291e-05)
(-2.2366e-21 -1.1183e-21 -4.0291e-05)
(2.2366e-21 1.1183e-21 -4.0291e-05)
(-1.1183e-21 -4.95383e-35 -4.0291e-05)
(-1.1183e-21 -1.1183e-21 -4.0291e-05)
(4.95383e-35 -0 -4.02909e-05)
(1.1183e-21 1.1183e-21 -4.02909e-05)
(-1.35714e-56 -2.71429e-56 -4.02909e-05)
(9.90765e-35 4.95382e-35 -4.02909e-05)
(2.48312e-37 1.24156e-37 -4.02909e-05)
(-9.90764e-35 -4.95382e-35 -4.02909e-05)
(-9.90764e-35 -4.95382e-35 -4.02909e-05)
(-1.1183e-21 -1.1183e-21 -4.02909e-05)
(1.1183e-21 -0 -4.02909e-05)
(-0 -0 -4.02909e-05)
(-1.1183e-21 -0 -4.02908e-05)
(1.1183e-21 1.1183e-21 -4.02908e-05)
(1.11829e-21 1.24156e-37 -4.02908e-05)
(-9.92004e-35 -9.92004e-35 -4.02908e-05)
(-4.96622e-35 -4.96622e-35 -4.02908e-05)
(-1.11829e-21 -1.11829e-21 -4.02908e-05)
(-1.11829e-21 -0 -4.02908e-05)
(1.11829e-21 1.11829e-21 -4.02908e-05)
(1.11829e-21 -4.96622e-35 -4.02907e-05)
(-1.11829e-21 2.15468e-57 -4.02907e-05)
(-1.11829e-21 -4.9538e-35 -4.02907e-05)
(9.93242e-35 -1.11829e-21 -4.02907e-05)
(2.23658e-21 1.11829e-21 -4.02907e-05)
(-1.48986e-34 1.11829e-21 -4.02907e-05)
(-9.93241e-35 -0 -4.02906e-05)
(-4.9662e-35 -1.11829e-21 -4.02906e-05)
(-1.11829e-21 -1.11829e-21 -4.02906e-05)
(-0 -0 -4.02906e-05)
(1.11829e-21 1.11829e-21 -4.02906e-05)
(-1.11829e-21 1.24155e-37 -4.02905e-05)
(-1.11829e-21 -9.91996e-35 -4.02905e-05)
(2.23657e-21 1.11829e-21 -4.02905e-05)
(1.11828e-21 -0 -4.02905e-05)
(-2.23657e-21 -1.11828e-21 -4.02904e-05)
(2.1562e-56 4.31241e-56 -4.02904e-05)
(1.11828e-21 1.24154e-37 -4.02904e-05)
(-1.11828e-21 2.77956e-57 -4.02904e-05)
(-1.11828e-21 4.96617e-35 -4.02903e-05)
(1.11828e-21 -4.96616e-35 -4.02903e-05)
(3.35484e-21 2.23656e-21 -4.02903e-05)
(4.96616e-35 4.96616e-35 -4.02902e-05)
(-2.23656e-21 -2.23656e-21 -4.02902e-05)
(-1.11828e-21 -1.11828e-21 -4.02902e-05)
(-1.11828e-21 -0 -4.02901e-05)
(-9.93228e-35 -0 -4.02901e-05)
(1.11827e-21 -0 -4.02901e-05)
(-0 1.11827e-21 -4.029e-05)
(1.11827e-21 1.11827e-21 -4.029e-05)
(1.24153e-37 -0 -4.029e-05)
(-4.96612e-35 -0 -4.02899e-05)
(-3.47056e-57 -1.11827e-21 -4.02899e-05)
(-1.11827e-21 -1.11827e-21 -4.02898e-05)
(-0 -0 -4.02898e-05)
(2.23653e-21 2.23653e-21 -4.02898e-05)
(-1.11826e-21 -9.88252e-35 -4.02897e-05)
(-1.11826e-21 -1.11826e-21 -4.02897e-05)
(3.35478e-21 2.23652e-21 -4.02896e-05)
(4.96607e-35 -1.11826e-21 -4.02896e-05)
(-2.23652e-21 -2.23652e-21 -4.02895e-05)
(-1.11826e-21 -0 -4.02895e-05)
(-1.11826e-21 -0 -4.02894e-05)
(4.95363e-35 -0 -4.02893e-05)
(1.11825e-21 -0 -4.02893e-05)
(-0 -0 -4.02892e-05)
(2.2365e-21 1.11825e-21 -4.02892e-05)
(2.23649e-21 2.23649e-21 -4.02891e-05)
(-3.35474e-21 -1.11825e-21 -4.0289e-05)
(-2.23649e-21 -1.11824e-21 -4.0289e-05)
(-4.95358e-35 -4.95358e-35 -4.02889e-05)
(2.23648e-21 1.11824e-21 -4.02888e-05)
(1.11824e-21 -2.48299e-37 -4.02888e-05)
(-2.23647e-21 -2.23647e-21 -4.02887e-05)
(-0 -0 -4.02886e-05)
(1.11823e-21 1.11823e-21 -4.02885e-05)
(1.24148e-37 1.11823e-21 -4.02884e-05)
(-2.23645e-21 -1.11823e-21 -4.02884e-05)
(1.11822e-21 -1.98512e-34 -4.02883e-05)
(1.11822e-21 -1.11822e-21 -4.02882e-05)
(-1.11822e-21 -1.11822e-21 -4.02881e-05)
(-1.11822e-21 1.11822e-21 -4.0288e-05)
(5.80137e-57 1.11821e-21 -4.02879e-05)
(2.23642e-21 1.11821e-21 -4.02878e-05)
(1.11821e-21 -0 -4.02877e-05)
(-2.2364e-21 -1.1182e-21 -4.02874e-05)
(-2.23623e-21 -1.11812e-21 -4.02844e-05)
)
;

boundaryField
{
    top
    {
        type            calculated;
        value           uniform (-2.23623e-21 -1.11812e-21 -4.02856e-05);
    }
    left
    {
        type            empty;
    }
    right
    {
        type            empty;
    }
    front
    {
        type            empty;
    }
    back
    {
        type            empty;
    }
    bottom
    {
        type            calculated;
        value           uniform (1.11831e-21 1.11831e-21 -4.02911e-05);
    }
}


// ************************************************************************* //
