/*--------------------------------*- C++ -*----------------------------------*\
  =========                 |
  \\      /  F ield         | OpenFOAM: The Open Source CFD Toolbox
   \\    /   O peration     | Website:  https://openfoam.org
    \\  /    A nd           | Version:  7
     \\/     M anipulation  |
\*---------------------------------------------------------------------------*/
FoamFile
{
    version     2.0;
    format      ascii;
    class       volVectorField;
    location    "0.00000";
    object      U;
}
// * * * * * * * * * * * * * * * * * * * * * * * * * * * * * * * * * * * * * //

dimensions      [0 1 -1 0 0 0 0];

internalField   nonuniform List<vector> 
200
(
(1.11831e-21 1.11831e-21 -4.02914e-05)
(1.11829e-21 1.11829e-21 -4.02907e-05)
(-1.11829e-21 -0 -4.02908e-05)
(-5.83532e-36 -1.1183e-21 -4.02908e-05)
(1.1183e-21 -1.1183e-21 -4.0291e-05)
(1.1183e-21 1.1183e-21 -4.0291e-05)
(-2.97976e-36 1.1183e-21 -4.02911e-05)
(-1.1183e-21 -0 -4.0291e-05)
(1.1183e-21 -0 -4.0291e-05)
(-1.1183e-21 -1.1183e-21 -4.02909e-05)
(-2.23659e-21 -1.11829e-21 -4.02908e-05)
(2.23659e-21 2.23659e-21 -4.02909e-05)
(2.23661e-21 2.23661e-21 -4.02911e-05)
(-3.3549e-21 -3.3549e-21 -4.0291e-05)
(6.97598e-56 6.97598e-56 -4.02909e-05)
(3.35491e-21 2.23661e-21 -4.02911e-05)
(-2.23661e-21 -2.23661e-21 -4.02912e-05)
(2.48313e-37 1.24156e-37 -4.02911e-05)
(1.11829e-21 1.11829e-21 -4.02907e-05)
(1.86234e-35 2.2366e-21 -4.02909e-05)
(1.1183e-21 -2.48312e-37 -4.0291e-05)
(-0 -2.2366e-21 -4.02911e-05)
(-3.35491e-21 -1.1183e-21 -4.02911e-05)
(-7.39966e-35 1.11829e-21 -4.02907e-05)
(4.47318e-21 2.23659e-21 -4.02908e-05)
(-2.23659e-21 -1.1183e-21 -4.02909e-05)
(-3.35491e-21 -2.23661e-21 -4.02911e-05)
(3.3549e-21 1.1183e-21 -4.02909e-05)
(-7.44941e-35 1.11831e-21 -4.02912e-05)
(-3.35488e-21 -2.23659e-21 -4.02908e-05)
(-0 -1.24156e-37 -4.02909e-05)
(-0 -1.25398e-35 -4.02912e-05)
(2.2366e-21 -1.25398e-35 -4.0291e-05)
(1.11831e-21 1.11831e-21 -4.02912e-05)
(-1.25398e-35 1.1183e-21 -4.0291e-05)
(-1.1183e-21 -1.24157e-37 -4.02911e-05)
(-2.23659e-21 -2.23659e-21 -4.02909e-05)
(3.35489e-21 1.1183e-21 -4.02909e-05)
(2.23661e-21 1.1183e-21 -4.02912e-05)
(-1.24156e-35 -1.24156e-35 -4.0291e-05)
(-2.23661e-21 -1.03275e-56 -4.02912e-05)
(-2.2366e-21 -1.1183e-21 -4.0291e-05)
(-1.25397e-35 -0 -4.02908e-05)
(-0 -0 -4.02908e-05)
(2.23662e-21 -0 -4.02913e-05)
(-1.24157e-35 -1.1183e-21 -4.02911e-05)
(-1.25398e-35 -1.25398e-35 -4.02911e-05)
(-1.1183e-21 -1.24157e-37 -4.02911e-05)
(-4.99109e-35 -2.49555e-35 -4.02911e-05)
(-2.50796e-35 -1.1183e-21 -4.02911e-05)
(-2.23659e-21 -1.1183e-21 -4.02909e-05)
(2.23659e-21 3.35489e-21 -4.02909e-05)
(-4.30135e-56 -1.1183e-21 -4.02911e-05)
(-4.99109e-35 -7.44939e-35 -4.02911e-05)
(4.96624e-35 1.1183e-21 -4.02909e-05)
(-2.23661e-21 -1.1183e-21 -4.02911e-05)
(2.23662e-21 1.11831e-21 -4.02913e-05)
(2.23659e-21 -0 -4.02908e-05)
(-0 1.1183e-21 -4.0291e-05)
(-0 1.11831e-21 -4.02913e-05)
(-0 -1.11831e-21 -4.02913e-05)
(-0 -1.1183e-21 -4.0291e-05)
(-0 1.1183e-21 -4.02912e-05)
(-2.2366e-21 -1.1183e-21 -4.02909e-05)
(-2.23661e-21 -3.35491e-21 -4.02911e-05)
(2.23659e-21 1.1183e-21 -4.02908e-05)
(4.94145e-35 1.11831e-21 -4.02912e-05)
(-2.2366e-21 3.43908e-57 -4.0291e-05)
(-0 -1.11831e-21 -4.02914e-05)
(-1.1183e-21 -1.1183e-21 -4.02911e-05)
(-4.95384e-35 1.1183e-21 -4.0291e-05)
(1.1183e-21 -0 -4.0291e-05)
(-0 -1.1183e-21 -4.02912e-05)
(-1.11831e-21 1.07444e-57 -4.02913e-05)
(1.11831e-21 1.11831e-21 -4.02912e-05)
(3.35491e-21 2.23661e-21 -4.02912e-05)
(-1.1183e-21 -9.93252e-35 -4.02911e-05)
(-2.23661e-21 -1.11831e-21 -4.02912e-05)
(-0 -2.47073e-35 -4.02914e-05)
(-0 -1.11831e-21 -4.02913e-05)
(-0 -0 -4.02908e-05)
(1.1183e-21 1.1183e-21 -4.02909e-05)
(2.23661e-21 2.23661e-21 -4.02912e-05)
(9.94489e-35 9.94489e-35 -4.02909e-05)
(-2.2366e-21 -2.2366e-21 -4.0291e-05)
(-1.11831e-21 -1.11831e-21 -4.02914e-05)
(2.2366e-21 1.1183e-21 -4.0291e-05)
(5.01593e-35 2.50796e-35 -4.02911e-05)
(-1.11831e-21 -2.45831e-35 -4.02912e-05)
(2.2366e-21 1.1183e-21 -4.02911e-05)
(-1.11831e-21 -1.11831e-21 -4.02912e-05)
(-1.48492e-34 1.11831e-21 -4.02913e-05)
(4.96626e-35 1.1183e-21 -4.02911e-05)
(-2.2366e-21 -2.2366e-21 -4.0291e-05)
(-0 -7.437e-35 -4.02912e-05)
(-0 1.24157e-37 -4.02911e-05)
(2.2366e-21 -4.97866e-35 -4.0291e-05)
(-4.96628e-35 -1.11831e-21 -4.02912e-05)
(-2.23659e-21 -1.1183e-21 -4.02908e-05)
(-0 1.1183e-21 -4.02909e-05)
(-1.11831e-21 -0 -4.02913e-05)
(2.2366e-21 2.2366e-21 -4.02909e-05)
(1.1183e-21 1.9865e-34 -4.0291e-05)
(-2.2366e-21 -2.2366e-21 -4.0291e-05)
(-1.11831e-21 -0 -4.02913e-05)
(1.1183e-21 1.1183e-21 -4.0291e-05)
(1.1183e-21 1.24156e-37 -4.0291e-05)
(-1.1183e-21 -1.1183e-21 -4.0291e-05)
(-1.1183e-21 -0 -4.0291e-05)
(2.2366e-21 1.1183e-21 -4.0291e-05)
(4.96625e-37 1.24156e-37 -4.0291e-05)
(-2.2366e-21 -1.1183e-21 -4.0291e-05)
(2.23658e-21 1.11829e-21 -4.02907e-05)
(-1.1183e-21 -4.95382e-35 -4.02909e-05)
(-1.1183e-21 -1.1183e-21 -4.02911e-05)
(4.95383e-35 -0 -4.0291e-05)
(1.11829e-21 1.11829e-21 -4.02907e-05)
(-1.37165e-56 -2.74329e-56 -4.02909e-05)
(9.90768e-35 4.95384e-35 -4.0291e-05)
(2.48312e-37 1.24156e-37 -4.0291e-05)
(-9.90764e-35 -4.95382e-35 -4.02909e-05)
(-9.90767e-35 -4.95383e-35 -4.0291e-05)
(-1.1183e-21 -1.1183e-21 -4.02909e-05)
(1.11829e-21 -0 -4.02908e-05)
(-0 -0 -4.02909e-05)
(-1.11829e-21 -0 -4.02905e-05)
(1.1183e-21 1.1183e-21 -4.0291e-05)
(1.1183e-21 1.24156e-37 -4.02909e-05)
(-9.92002e-35 -9.92002e-35 -4.02907e-05)
(-4.9662e-35 -4.9662e-35 -4.02906e-05)
(-1.11829e-21 -1.11829e-21 -4.02906e-05)
(-1.1183e-21 -0 -4.02909e-05)
(1.1183e-21 1.1183e-21 -4.02909e-05)
(1.11829e-21 -4.96619e-35 -4.02905e-05)
(-1.11829e-21 2.13995e-57 -4.02907e-05)
(-1.11829e-21 -4.9538e-35 -4.02907e-05)
(9.93242e-35 -1.11829e-21 -4.02907e-05)
(2.23657e-21 1.11828e-21 -4.02905e-05)
(-1.48985e-34 1.11828e-21 -4.02904e-05)
(-9.9324e-35 -0 -4.02906e-05)
(-4.96622e-35 -1.11829e-21 -4.02908e-05)
(-1.11829e-21 -1.11829e-21 -4.02905e-05)
(-0 -0 -4.02908e-05)
(1.11829e-21 1.11829e-21 -4.02907e-05)
(-1.11829e-21 1.24155e-37 -4.02906e-05)
(-1.11829e-21 -9.91997e-35 -4.02905e-05)
(2.23658e-21 1.11829e-21 -4.02906e-05)
(1.11828e-21 -0 -4.02903e-05)
(-2.23657e-21 -1.11829e-21 -4.02905e-05)
(2.05088e-56 4.10176e-56 -4.02906e-05)
(1.11828e-21 1.24154e-37 -4.02902e-05)
(-1.11828e-21 2.9901e-57 -4.02902e-05)
(-1.11828e-21 4.96618e-35 -4.02904e-05)
(1.11828e-21 -4.96618e-35 -4.02905e-05)
(3.35483e-21 2.23656e-21 -4.02902e-05)
(4.96614e-35 4.96614e-35 -4.02902e-05)
(-2.23655e-21 -2.23655e-21 -4.02901e-05)
(-1.11827e-21 -1.11827e-21 -4.029e-05)
(-1.11828e-21 -0 -4.02902e-05)
(-9.93222e-35 -0 -4.02899e-05)
(1.11828e-21 -0 -4.02902e-05)
(-0 1.11827e-21 -4.02901e-05)
(1.11828e-21 1.11828e-21 -4.02901e-05)
(1.24153e-37 -0 -4.02899e-05)
(-4.96613e-35 -0 -4.029e-05)
(-3.41032e-57 -1.11827e-21 -4.02898e-05)
(-1.11827e-21 -1.11827e-21 -4.02898e-05)
(-0 -0 -4.029e-05)
(2.23652e-21 2.23652e-21 -4.02895e-05)
(-1.11827e-21 -9.88256e-35 -4.02899e-05)
(-1.11827e-21 -1.11827e-21 -4.029e-05)
(3.35477e-21 2.23651e-21 -4.02894e-05)
(4.96607e-35 -1.11826e-21 -4.02895e-05)
(-2.23651e-21 -2.23651e-21 -4.02894e-05)
(-1.11825e-21 -0 -4.02892e-05)
(-1.11825e-21 -0 -4.02892e-05)
(4.95361e-35 -0 -4.02892e-05)
(1.11826e-21 -0 -4.02894e-05)
(-0 -0 -4.02894e-05)
(2.23649e-21 1.11825e-21 -4.0289e-05)
(2.23648e-21 2.23648e-21 -4.02889e-05)
(-3.35471e-21 -1.11824e-21 -4.02888e-05)
(-2.23648e-21 -1.11824e-21 -4.02888e-05)
(-4.9536e-35 -4.9536e-35 -4.02891e-05)
(2.23648e-21 1.11824e-21 -4.02889e-05)
(1.11823e-21 -2.48298e-37 -4.02886e-05)
(-2.23648e-21 -2.23648e-21 -4.02888e-05)
(-0 -0 -4.02887e-05)
(1.11823e-21 1.11823e-21 -4.02883e-05)
(1.24149e-37 1.11823e-21 -4.02886e-05)
(-2.23646e-21 -1.11823e-21 -4.02885e-05)
(1.11822e-21 -1.98511e-34 -4.0288e-05)
(1.11822e-21 -1.11822e-21 -4.02879e-05)
(-1.11822e-21 -1.11822e-21 -4.02881e-05)
(-1.11822e-21 1.11822e-21 -4.02882e-05)
(5.93036e-57 1.11822e-21 -4.02881e-05)
(2.23642e-21 1.11821e-21 -4.02878e-05)
(1.11821e-21 -0 -4.02876e-05)
(-2.2364e-21 -1.1182e-21 -4.02874e-05)
(-7.45368e-22 -3.72684e-22 -1.34274e-05)
)
;

boundaryField
{
    top
    {
        type            calculated;
        value           uniform (-7.45368e-22 -3.72684e-22 -0);
    }
    left
    {
        type            empty;
    }
    right
    {
        type            empty;
    }
    front
    {
        type            empty;
    }
    back
    {
        type            empty;
    }
    bottom
    {
        type            calculated;
        value           uniform (1.11831e-21 1.11831e-21 -4.02913e-05);
    }
}


// ************************************************************************* //
