/*--------------------------------*- C++ -*----------------------------------*\
  =========                 |
  \\      /  F ield         | OpenFOAM: The Open Source CFD Toolbox
   \\    /   O peration     | Website:  https://openfoam.org
    \\  /    A nd           | Version:  7
     \\/     M anipulation  |
\*---------------------------------------------------------------------------*/
FoamFile
{
    version     2.0;
    format      ascii;
    class       volScalarField;
    location    "0.00000";
    object      XAR;
}
// * * * * * * * * * * * * * * * * * * * * * * * * * * * * * * * * * * * * * //

dimensions      [1 -3 0 0 0 0 0];

internalField   nonuniform List<scalar> 
200
(
0.00275085
0.00276476
0.00277637
0.00278768
0.00279905
0.00281054
0.00282212
0.00283384
0.00284565
0.00285759
0.00286964
0.00288182
0.00289411
0.00290653
0.00291906
0.00293173
0.00294452
0.00295744
0.00297049
0.00298367
0.00299698
0.00301044
0.00302402
0.00303776
0.00305162
0.00306564
0.00307979
0.0030941
0.00310855
0.00312316
0.0031379
0.00315282
0.00316788
0.00318312
0.0031985
0.00321406
0.00322977
0.00324567
0.00326172
0.00327795
0.00329435
0.00331094
0.0033277
0.00334465
0.00336178
0.00337911
0.00339661
0.00341433
0.00343222
0.00345033
0.00346862
0.00348714
0.00350585
0.00352478
0.00354392
0.00356328
0.00358285
0.00360266
0.00362269
0.00364295
0.00366344
0.00368418
0.00370514
0.00372637
0.00374783
0.00376955
0.00379151
0.00381375
0.00383624
0.00385901
0.00388204
0.00390536
0.00392894
0.00395282
0.00397698
0.00400144
0.00402619
0.00405126
0.00407662
0.0041023
0.00412829
0.00415461
0.00418125
0.00420824
0.00423555
0.00426321
0.00429121
0.00431958
0.0043483
0.00437739
0.00440685
0.00443669
0.00446691
0.00449753
0.00452854
0.00455996
0.00459178
0.00462403
0.0046567
0.0046898
0.00472334
0.00475733
0.00479176
0.00482667
0.00486203
0.00489789
0.00493422
0.00497105
0.00500838
0.00504622
0.00508458
0.00512348
0.0051629
0.00520289
0.00524342
0.00528453
0.00532621
0.00536848
0.00541134
0.00545483
0.00549892
0.00554365
0.00558902
0.00563505
0.00568174
0.00572911
0.00577717
0.00582594
0.00587542
0.00592563
0.00597658
0.0060283
0.00608077
0.00613405
0.00618811
0.006243
0.00629871
0.00635527
0.00641269
0.006471
0.00653019
0.0065903
0.00665134
0.00671333
0.00677628
0.00684022
0.00690516
0.00697113
0.00703814
0.00710622
0.00717538
0.00724565
0.00731704
0.00738959
0.0074633
0.00753822
0.00761436
0.00769174
0.00777039
0.00785034
0.00793161
0.00801423
0.00809822
0.00818362
0.00827045
0.00835874
0.00844852
0.00853983
0.00863268
0.00872713
0.00882318
0.0089209
0.00902029
0.00912141
0.00922427
0.00932894
0.00943543
0.0095438
0.00965406
0.00976629
0.00988049
0.00999672
0.010115
0.0102355
0.010358
0.0104828
0.0106099
0.0107392
0.0108709
0.011005
0.0111416
0.0112806
0.0114222
0.0115664
0.0117133
0.0118629
0.0120153
0.0121707
0.0123285
0.0124766
)
;

boundaryField
{
    top
    {
        type            zeroGradient;
    }
    left
    {
        type            empty;
    }
    right
    {
        type            empty;
    }
    front
    {
        type            empty;
    }
    back
    {
        type            empty;
    }
    bottom
    {
        type            zeroGradient;
    }
}


// ************************************************************************* //
