/*--------------------------------*- C++ -*----------------------------------*\
  =========                 |
  \\      /  F ield         | OpenFOAM: The Open Source CFD Toolbox
   \\    /   O peration     | Website:  https://openfoam.org
    \\  /    A nd           | Version:  7
     \\/     M anipulation  |
\*---------------------------------------------------------------------------*/
FoamFile
{
    version     2.0;
    format      ascii;
    class       volScalarField;
    location    "0.00000";
    object      XARp;
}
// * * * * * * * * * * * * * * * * * * * * * * * * * * * * * * * * * * * * * //

dimensions      [1 -3 0 0 0 0 0];

internalField   nonuniform List<scalar> 
200
(
0.00211225
0.00210564
0.00210121
0.00209672
0.00209223
0.00208769
0.00208315
0.00207855
0.00207395
0.0020693
0.00206465
0.00205994
0.00205523
0.00205046
0.00204569
0.00204086
0.00203603
0.00203114
0.00202625
0.00202131
0.00201635
0.00201134
0.00200633
0.00200125
0.00199617
0.00199104
0.00198589
0.00198069
0.00197548
0.0019702
0.00196493
0.00195959
0.00195424
0.00194883
0.00194341
0.00193793
0.00193244
0.00192689
0.00192132
0.0019157
0.00191006
0.00190436
0.00189865
0.00189287
0.00188708
0.00188122
0.00187535
0.00186941
0.00186346
0.00185745
0.00185141
0.00184531
0.00183919
0.00183301
0.00182681
0.00182053
0.00181424
0.00180788
0.0018015
0.00179505
0.00178858
0.00178204
0.00177547
0.00176884
0.00176218
0.00175545
0.00174869
0.00174186
0.001735
0.00172807
0.00172111
0.00171408
0.00170702
0.00169988
0.00169271
0.00168546
0.00167819
0.00167083
0.00166345
0.00165598
0.00164848
0.0016409
0.00163328
0.00162558
0.00161784
0.00161002
0.00160217
0.00159423
0.00158624
0.00157818
0.00157007
0.00156187
0.00155363
0.0015453
0.00153693
0.00152847
0.00151996
0.00151135
0.00150271
0.00149396
0.00148517
0.00147628
0.00146734
0.0014583
0.00144921
0.00144002
0.00143077
0.00142143
0.00141202
0.00140251
0.00139295
0.00138327
0.00137354
0.0013637
0.00135379
0.00134378
0.0013337
0.0013235
0.00131324
0.00130287
0.00129242
0.00128186
0.00127122
0.00126046
0.00124963
0.00123868
0.00122764
0.00121649
0.00120525
0.00119388
0.00118243
0.00117085
0.00115918
0.00114737
0.00113548
0.00112345
0.00111132
0.00109906
0.0010867
0.00107419
0.00106159
0.00104883
0.00103598
0.00102297
0.00100985
0.000996582
0.000983199
0.000969659
0.000956001
0.000942183
0.000928243
0.000914137
0.000899905
0.000885504
0.000870972
0.000856266
0.000841424
0.000826403
0.000811243
0.000795898
0.000780408
0.000764729
0.000748899
0.000732874
0.000716694
0.000700313
0.000683771
0.000667023
0.000650107
0.000632979
0.000615677
0.000598157
0.000580457
0.000562532
0.00054442
0.000526076
0.000507538
0.000488762
0.000469784
0.00045056
0.000431128
0.000411442
0.000391539
0.000371374
0.000350985
0.000330325
0.000309433
0.000288261
0.000266847
0.000245145
0.000223192
0.000200941
0.00017843
0.000155611
0.000132521
0.000109114
8.54252e-05
6.1408e-05
3.70985e-05
1.24524e-05
)
;

boundaryField
{
    top
    {
        type            uniformInletOutlet;
        uniformInletValue constant 0;
        value           uniform 1.24524e-05;
    }
    left
    {
        type            empty;
    }
    right
    {
        type            empty;
    }
    front
    {
        type            empty;
    }
    back
    {
        type            empty;
    }
    bottom
    {
        type            zeroGradient;
    }
}


// ************************************************************************* //
