/*--------------------------------*- C++ -*----------------------------------*\
  =========                 |
  \\      /  F ield         | OpenFOAM: The Open Source CFD Toolbox
   \\    /   O peration     | Website:  https://openfoam.org
    \\  /    A nd           | Version:  7
     \\/     M anipulation  |
\*---------------------------------------------------------------------------*/
FoamFile
{
    version     2.0;
    format      ascii;
    class       volScalarField;
    location    "0.00000";
    object      XDN;
}
// * * * * * * * * * * * * * * * * * * * * * * * * * * * * * * * * * * * * * //

dimensions      [1 -3 0 0 0 0 0];

internalField   nonuniform List<scalar> 
200
(
4.27286e-07
4.2572e-07
4.24163e-07
4.22637e-07
4.21125e-07
4.19618e-07
4.18114e-07
4.16614e-07
4.15117e-07
4.13622e-07
4.12131e-07
4.10643e-07
4.09157e-07
4.07675e-07
4.06196e-07
4.04719e-07
4.03246e-07
4.01775e-07
4.00308e-07
3.98843e-07
3.97382e-07
3.95923e-07
3.94468e-07
3.93015e-07
3.91565e-07
3.90118e-07
3.88675e-07
3.87234e-07
3.85796e-07
3.84361e-07
3.82929e-07
3.81499e-07
3.80073e-07
3.7865e-07
3.77229e-07
3.75812e-07
3.74397e-07
3.72986e-07
3.71577e-07
3.70171e-07
3.68768e-07
3.67368e-07
3.6597e-07
3.64576e-07
3.63184e-07
3.61796e-07
3.6041e-07
3.59027e-07
3.57647e-07
3.5627e-07
3.54896e-07
3.53524e-07
3.52155e-07
3.5079e-07
3.49427e-07
3.48067e-07
3.46709e-07
3.45355e-07
3.44003e-07
3.42654e-07
3.41308e-07
3.39965e-07
3.38625e-07
3.37287e-07
3.35952e-07
3.34621e-07
3.33291e-07
3.31965e-07
3.30641e-07
3.29321e-07
3.28002e-07
3.26687e-07
3.25375e-07
3.24065e-07
3.22758e-07
3.21454e-07
3.20152e-07
3.18854e-07
3.17558e-07
3.16265e-07
3.14974e-07
3.13687e-07
3.12401e-07
3.11119e-07
3.0984e-07
3.08563e-07
3.07289e-07
3.06018e-07
3.04749e-07
3.03483e-07
3.0222e-07
3.00959e-07
2.99701e-07
2.98446e-07
2.97194e-07
2.95944e-07
2.94697e-07
2.93452e-07
2.92211e-07
2.90972e-07
2.89735e-07
2.88501e-07
2.8727e-07
2.86042e-07
2.84816e-07
2.83593e-07
2.82372e-07
2.81155e-07
2.79939e-07
2.78727e-07
2.77517e-07
2.76309e-07
2.75105e-07
2.73903e-07
2.72703e-07
2.71506e-07
2.70312e-07
2.6912e-07
2.67931e-07
2.66745e-07
2.65561e-07
2.64379e-07
2.63201e-07
2.62024e-07
2.60851e-07
2.5968e-07
2.58511e-07
2.57345e-07
2.56182e-07
2.55021e-07
2.53863e-07
2.52707e-07
2.51554e-07
2.50403e-07
2.49255e-07
2.4811e-07
2.46967e-07
2.45826e-07
2.44688e-07
2.43553e-07
2.4242e-07
2.41289e-07
2.40161e-07
2.39036e-07
2.37913e-07
2.36792e-07
2.35674e-07
2.34559e-07
2.33445e-07
2.32335e-07
2.31227e-07
2.30121e-07
2.29018e-07
2.27917e-07
2.26819e-07
2.25723e-07
2.2463e-07
2.23539e-07
2.2245e-07
2.21364e-07
2.2028e-07
2.19199e-07
2.1812e-07
2.17044e-07
2.1597e-07
2.14898e-07
2.13829e-07
2.12762e-07
2.11698e-07
2.10636e-07
2.09576e-07
2.08519e-07
2.07464e-07
2.06411e-07
2.05361e-07
2.04313e-07
2.03268e-07
2.02225e-07
2.01184e-07
2.00146e-07
1.9911e-07
1.98076e-07
1.97045e-07
1.96016e-07
1.94989e-07
1.93965e-07
1.92943e-07
1.91923e-07
1.90906e-07
1.89891e-07
1.88878e-07
1.87867e-07
1.86859e-07
1.85853e-07
1.8485e-07
1.83848e-07
1.82851e-07
1.81865e-07
1.80929e-07
1.80206e-07
)
;

boundaryField
{
    top
    {
        type            zeroGradient;
    }
    left
    {
        type            empty;
    }
    right
    {
        type            empty;
    }
    front
    {
        type            empty;
    }
    back
    {
        type            empty;
    }
    bottom
    {
        type            zeroGradient;
    }
}


// ************************************************************************* //
