/*--------------------------------*- C++ -*----------------------------------*\
  =========                 |
  \\      /  F ield         | OpenFOAM: The Open Source CFD Toolbox
   \\    /   O peration     | Website:  https://openfoam.org
    \\  /    A nd           | Version:  7
     \\/     M anipulation  |
\*---------------------------------------------------------------------------*/
FoamFile
{
    version     2.0;
    format      ascii;
    class       volScalarField;
    location    "863997.597";
    object      XDNp;
}
// * * * * * * * * * * * * * * * * * * * * * * * * * * * * * * * * * * * * * //

dimensions      [1 -3 0 0 0 0 0];

internalField   nonuniform List<scalar> 
200
(
1.16134e-07
1.14883e-07
1.14052e-07
1.13223e-07
1.12398e-07
1.11575e-07
1.10755e-07
1.09938e-07
1.09124e-07
1.08313e-07
1.07505e-07
1.06699e-07
1.05897e-07
1.05097e-07
1.043e-07
1.03505e-07
1.02714e-07
1.01926e-07
1.0114e-07
1.00357e-07
9.95768e-08
9.87995e-08
9.80249e-08
9.72532e-08
9.64842e-08
9.5718e-08
9.49545e-08
9.41939e-08
9.3436e-08
9.26808e-08
9.19284e-08
9.11787e-08
9.04318e-08
8.96876e-08
8.89461e-08
8.82074e-08
8.74713e-08
8.6738e-08
8.60074e-08
8.52795e-08
8.45543e-08
8.38318e-08
8.31119e-08
8.23948e-08
8.16803e-08
8.09685e-08
8.02593e-08
7.95528e-08
7.8849e-08
7.81478e-08
7.74493e-08
7.67534e-08
7.60601e-08
7.53695e-08
7.46815e-08
7.39961e-08
7.33133e-08
7.26332e-08
7.19556e-08
7.12806e-08
7.06083e-08
6.99385e-08
6.92713e-08
6.86067e-08
6.79446e-08
6.72852e-08
6.66283e-08
6.59739e-08
6.53221e-08
6.46729e-08
6.40262e-08
6.3382e-08
6.27404e-08
6.21013e-08
6.14647e-08
6.08307e-08
6.01991e-08
5.95701e-08
5.89436e-08
5.83195e-08
5.7698e-08
5.7079e-08
5.64624e-08
5.58483e-08
5.52367e-08
5.46276e-08
5.40209e-08
5.34167e-08
5.28149e-08
5.22156e-08
5.16188e-08
5.10244e-08
5.04324e-08
4.98428e-08
4.92557e-08
4.8671e-08
4.80887e-08
4.75088e-08
4.69314e-08
4.63563e-08
4.57836e-08
4.52134e-08
4.46455e-08
4.408e-08
4.35168e-08
4.29561e-08
4.23977e-08
4.18417e-08
4.1288e-08
4.07367e-08
4.01877e-08
3.96411e-08
3.90968e-08
3.85549e-08
3.80153e-08
3.7478e-08
3.6943e-08
3.64104e-08
3.58801e-08
3.5352e-08
3.48263e-08
3.43029e-08
3.37817e-08
3.32629e-08
3.27463e-08
3.2232e-08
3.172e-08
3.12103e-08
3.07028e-08
3.01976e-08
2.96946e-08
2.91939e-08
2.86955e-08
2.81992e-08
2.77052e-08
2.72135e-08
2.6724e-08
2.62367e-08
2.57516e-08
2.52687e-08
2.47881e-08
2.43096e-08
2.38334e-08
2.33593e-08
2.28874e-08
2.24178e-08
2.19503e-08
2.1485e-08
2.10218e-08
2.05608e-08
2.0102e-08
1.96454e-08
1.91909e-08
1.87385e-08
1.82883e-08
1.78403e-08
1.73944e-08
1.69506e-08
1.65089e-08
1.60694e-08
1.5632e-08
1.51967e-08
1.47635e-08
1.43324e-08
1.39035e-08
1.34766e-08
1.30518e-08
1.26291e-08
1.22085e-08
1.179e-08
1.13735e-08
1.09591e-08
1.05468e-08
1.01366e-08
9.72837e-09
9.32223e-09
8.91814e-09
8.5161e-09
8.1161e-09
7.71813e-09
7.32219e-09
6.92829e-09
6.53641e-09
6.14654e-09
5.75869e-09
5.37286e-09
4.98903e-09
4.6072e-09
4.22737e-09
3.84954e-09
3.47369e-09
3.09983e-09
2.72795e-09
2.35805e-09
1.99011e-09
1.62414e-09
1.26012e-09
8.98009e-10
5.37713e-10
1.78985e-10
)
;

boundaryField
{
    top
    {
        type            uniformInletOutlet;
        uniformInletValue constant 0;
        value           uniform 0;
    }
    left
    {
        type            empty;
    }
    right
    {
        type            empty;
    }
    front
    {
        type            empty;
    }
    back
    {
        type            empty;
    }
    bottom
    {
        type            zeroGradient;
    }
}


// ************************************************************************* //
