/*--------------------------------*- C++ -*----------------------------------*\
  =========                 |
  \\      /  F ield         | OpenFOAM: The Open Source CFD Toolbox
   \\    /   O peration     | Website:  https://openfoam.org
    \\  /    A nd           | Version:  7
     \\/     M anipulation  |
\*---------------------------------------------------------------------------*/
FoamFile
{
    version     2.0;
    format      ascii;
    class       volScalarField;
    location    "863997.597";
    object      XI;
}
// * * * * * * * * * * * * * * * * * * * * * * * * * * * * * * * * * * * * * //

dimensions      [1 -3 0 0 0 0 0];

internalField   nonuniform List<scalar> 
200
(
0.000269254
0.000269924
0.000270489
0.000271034
0.000271583
0.000272136
0.000272695
0.000273259
0.000273828
0.000274403
0.000274982
0.000275567
0.000276158
0.000276754
0.000277356
0.000277964
0.000278576
0.000279196
0.00027982
0.000280451
0.000281087
0.00028173
0.000282379
0.000283034
0.000283695
0.000284362
0.000285036
0.000285716
0.000286403
0.000287096
0.000287796
0.000288503
0.000289216
0.000289937
0.000290664
0.000291398
0.000292139
0.000292888
0.000293644
0.000294407
0.000295178
0.000295956
0.000296742
0.000297536
0.000298337
0.000299146
0.000299963
0.000300788
0.000301621
0.000302463
0.000303313
0.000304172
0.000305038
0.000305914
0.000306798
0.000307692
0.000308593
0.000309505
0.000310425
0.000311355
0.000312294
0.000313242
0.0003142
0.000315168
0.000316146
0.000317134
0.000318131
0.000319139
0.000320158
0.000321187
0.000322226
0.000323276
0.000324337
0.000325409
0.000326492
0.000327587
0.000328692
0.00032981
0.000330939
0.00033208
0.000333233
0.000334398
0.000335576
0.000336766
0.000337968
0.000339184
0.000340412
0.000341653
0.000342908
0.000344176
0.000345458
0.000346754
0.000348064
0.000349388
0.000350726
0.000352079
0.000353446
0.000354829
0.000356227
0.00035764
0.000359069
0.000360513
0.000361974
0.000363451
0.000364944
0.000366454
0.00036798
0.000369524
0.000371085
0.000372664
0.00037426
0.000375875
0.000377508
0.00037916
0.00038083
0.00038252
0.000384228
0.000385957
0.000387706
0.000389474
0.000391263
0.000393074
0.000394905
0.000396757
0.000398631
0.000400528
0.000402446
0.000404387
0.000406351
0.000408339
0.00041035
0.000412385
0.000414445
0.000416529
0.000418638
0.000420773
0.000422933
0.00042512
0.000427334
0.000429574
0.000431842
0.000434138
0.000436461
0.000438814
0.000441196
0.000443607
0.000446048
0.00044852
0.000451022
0.000453557
0.000456122
0.000458721
0.000461352
0.000464016
0.000466714
0.000469447
0.000472215
0.000475018
0.000477858
0.000480734
0.000483647
0.000486598
0.000489587
0.000492616
0.000495684
0.000498792
0.000501941
0.000505132
0.000508365
0.000511641
0.00051496
0.000518324
0.000521733
0.000525188
0.000528688
0.000532237
0.000535833
0.000539478
0.000543172
0.000546917
0.000550714
0.000554562
0.000558463
0.000562418
0.000566427
0.000570493
0.000574614
0.000578793
0.00058303
0.000587327
0.000591684
0.000596102
0.000600582
0.000605126
0.000609735
0.000614409
0.00061915
0.000623965
0.00062885
0.000633453
)
;

boundaryField
{
    top
    {
        type            zeroGradient;
    }
    left
    {
        type            empty;
    }
    right
    {
        type            empty;
    }
    front
    {
        type            empty;
    }
    back
    {
        type            empty;
    }
    bottom
    {
        type            zeroGradient;
    }
}


// ************************************************************************* //
