/*--------------------------------*- C++ -*----------------------------------*\
  =========                 |
  \\      /  F ield         | OpenFOAM: The Open Source CFD Toolbox
   \\    /   O peration     | Website:  https://openfoam.org
    \\  /    A nd           | Version:  7
     \\/     M anipulation  |
\*---------------------------------------------------------------------------*/
FoamFile
{
    version     2.0;
    format      ascii;
    class       volScalarField;
    location    "863997.597";
    object      XN;
}
// * * * * * * * * * * * * * * * * * * * * * * * * * * * * * * * * * * * * * //

dimensions      [1 -3 0 0 0 0 0];

internalField   nonuniform List<scalar> 
200
(
3.22732e-06
3.21876e-06
3.21029e-06
3.20199e-06
3.19376e-06
3.18554e-06
3.17734e-06
3.16915e-06
3.16096e-06
3.15279e-06
3.14463e-06
3.13647e-06
3.12833e-06
3.12019e-06
3.11206e-06
3.10394e-06
3.09583e-06
3.08773e-06
3.07965e-06
3.07156e-06
3.06349e-06
3.05543e-06
3.04738e-06
3.03934e-06
3.0313e-06
3.02328e-06
3.01527e-06
3.00726e-06
2.99927e-06
2.99128e-06
2.9833e-06
2.97533e-06
2.96738e-06
2.95943e-06
2.95149e-06
2.94356e-06
2.93564e-06
2.92773e-06
2.91983e-06
2.91194e-06
2.90406e-06
2.89619e-06
2.88833e-06
2.88048e-06
2.87264e-06
2.8648e-06
2.85698e-06
2.84917e-06
2.84137e-06
2.83357e-06
2.82579e-06
2.81801e-06
2.81025e-06
2.8025e-06
2.79475e-06
2.78702e-06
2.77929e-06
2.77158e-06
2.76387e-06
2.75618e-06
2.74849e-06
2.74082e-06
2.73315e-06
2.7255e-06
2.71785e-06
2.71021e-06
2.70259e-06
2.69497e-06
2.68737e-06
2.67977e-06
2.67219e-06
2.66461e-06
2.65705e-06
2.64949e-06
2.64194e-06
2.63441e-06
2.62688e-06
2.61937e-06
2.61186e-06
2.60437e-06
2.59689e-06
2.58941e-06
2.58195e-06
2.57449e-06
2.56705e-06
2.55961e-06
2.55219e-06
2.54478e-06
2.53738e-06
2.52998e-06
2.5226e-06
2.51523e-06
2.50787e-06
2.50052e-06
2.49318e-06
2.48585e-06
2.47853e-06
2.47122e-06
2.46392e-06
2.45663e-06
2.44936e-06
2.44209e-06
2.43483e-06
2.42759e-06
2.42035e-06
2.41312e-06
2.40591e-06
2.39871e-06
2.39151e-06
2.38433e-06
2.37716e-06
2.37e-06
2.36285e-06
2.35571e-06
2.34858e-06
2.34146e-06
2.33436e-06
2.32726e-06
2.32017e-06
2.3131e-06
2.30603e-06
2.29898e-06
2.29194e-06
2.28491e-06
2.27789e-06
2.27088e-06
2.26388e-06
2.25689e-06
2.24992e-06
2.24295e-06
2.236e-06
2.22905e-06
2.22212e-06
2.2152e-06
2.20829e-06
2.20139e-06
2.1945e-06
2.18762e-06
2.18076e-06
2.1739e-06
2.16706e-06
2.16023e-06
2.15341e-06
2.1466e-06
2.1398e-06
2.13302e-06
2.12624e-06
2.11948e-06
2.11272e-06
2.10598e-06
2.09925e-06
2.09253e-06
2.08583e-06
2.07913e-06
2.07245e-06
2.06578e-06
2.05912e-06
2.05247e-06
2.04583e-06
2.0392e-06
2.03259e-06
2.02598e-06
2.01939e-06
2.01281e-06
2.00625e-06
1.99969e-06
1.99315e-06
1.98661e-06
1.98009e-06
1.97358e-06
1.96708e-06
1.9606e-06
1.95412e-06
1.94766e-06
1.94121e-06
1.93477e-06
1.92834e-06
1.92193e-06
1.91552e-06
1.90913e-06
1.90275e-06
1.89638e-06
1.89003e-06
1.88368e-06
1.87735e-06
1.87103e-06
1.86472e-06
1.85842e-06
1.85214e-06
1.84586e-06
1.8396e-06
1.83335e-06
1.82711e-06
1.82088e-06
1.81467e-06
1.80847e-06
1.80229e-06
1.79619e-06
1.79048e-06
1.78632e-06
)
;

boundaryField
{
    top
    {
        type            zeroGradient;
    }
    left
    {
        type            empty;
    }
    right
    {
        type            empty;
    }
    front
    {
        type            empty;
    }
    back
    {
        type            empty;
    }
    bottom
    {
        type            zeroGradient;
    }
}


// ************************************************************************* //
