/*--------------------------------*- C++ -*----------------------------------*\
  =========                 |
  \\      /  F ield         | OpenFOAM: The Open Source CFD Toolbox
   \\    /   O peration     | Website:  https://openfoam.org
    \\  /    A nd           | Version:  7
     \\/     M anipulation  |
\*---------------------------------------------------------------------------*/
FoamFile
{
    version     2.0;
    format      ascii;
    class       volScalarField;
    location    "0.00000";
    object      XNp;
}
// * * * * * * * * * * * * * * * * * * * * * * * * * * * * * * * * * * * * * //

dimensions      [1 -3 0 0 0 0 0];

internalField   nonuniform List<scalar> 
200
(
9.71566e-07
9.62151e-07
9.5589e-07
9.49642e-07
9.4341e-07
9.37193e-07
9.30992e-07
9.24806e-07
9.18636e-07
9.1248e-07
9.0634e-07
9.00215e-07
8.94105e-07
8.88011e-07
8.81931e-07
8.75867e-07
8.69818e-07
8.63784e-07
8.57766e-07
8.51762e-07
8.45773e-07
8.398e-07
8.33842e-07
8.27898e-07
8.2197e-07
8.16057e-07
8.10159e-07
8.04276e-07
7.98408e-07
7.92554e-07
7.86716e-07
7.80893e-07
7.75085e-07
7.69291e-07
7.63513e-07
7.57749e-07
7.52e-07
7.46266e-07
7.40547e-07
7.34843e-07
7.29154e-07
7.23479e-07
7.17819e-07
7.12174e-07
7.06544e-07
7.00928e-07
6.95327e-07
6.89741e-07
6.8417e-07
6.78613e-07
6.73071e-07
6.67543e-07
6.62031e-07
6.56532e-07
6.51049e-07
6.4558e-07
6.40125e-07
6.34685e-07
6.2926e-07
6.23849e-07
6.18453e-07
6.13071e-07
6.07704e-07
6.02351e-07
5.97012e-07
5.91688e-07
5.86378e-07
5.81083e-07
5.75802e-07
5.70536e-07
5.65284e-07
5.60046e-07
5.54822e-07
5.49613e-07
5.44418e-07
5.39238e-07
5.34071e-07
5.28919e-07
5.23781e-07
5.18657e-07
5.13548e-07
5.08452e-07
5.03371e-07
4.98304e-07
4.93251e-07
4.88212e-07
4.83188e-07
4.78177e-07
4.7318e-07
4.68198e-07
4.63229e-07
4.58274e-07
4.53334e-07
4.48407e-07
4.43494e-07
4.38596e-07
4.33711e-07
4.2884e-07
4.23983e-07
4.1914e-07
4.14311e-07
4.09495e-07
4.04693e-07
3.99906e-07
3.95131e-07
3.90371e-07
3.85625e-07
3.80892e-07
3.76173e-07
3.71467e-07
3.66775e-07
3.62097e-07
3.57433e-07
3.52782e-07
3.48145e-07
3.43521e-07
3.38911e-07
3.34315e-07
3.29732e-07
3.25162e-07
3.20607e-07
3.16064e-07
3.11535e-07
3.0702e-07
3.02518e-07
2.98029e-07
2.93554e-07
2.89092e-07
2.84643e-07
2.80208e-07
2.75786e-07
2.71377e-07
2.66982e-07
2.626e-07
2.58231e-07
2.53876e-07
2.49534e-07
2.45204e-07
2.40888e-07
2.36586e-07
2.32296e-07
2.28019e-07
2.23756e-07
2.19506e-07
2.15268e-07
2.11044e-07
2.06833e-07
2.02635e-07
1.98449e-07
1.94277e-07
1.90118e-07
1.85971e-07
1.81838e-07
1.77717e-07
1.7361e-07
1.69515e-07
1.65433e-07
1.61364e-07
1.57307e-07
1.53264e-07
1.49233e-07
1.45215e-07
1.41209e-07
1.37217e-07
1.33237e-07
1.29269e-07
1.25315e-07
1.21373e-07
1.17443e-07
1.13526e-07
1.09622e-07
1.0573e-07
1.01851e-07
9.79844e-08
9.41302e-08
9.02885e-08
8.64592e-08
8.26424e-08
7.8838e-08
7.5046e-08
7.12664e-08
6.74991e-08
6.37442e-08
6.00016e-08
5.62713e-08
5.25532e-08
4.88475e-08
4.5154e-08
4.14727e-08
3.78036e-08
3.41468e-08
3.05021e-08
2.68695e-08
2.32491e-08
1.96408e-08
1.60445e-08
1.24602e-08
8.88761e-09
5.32609e-09
1.77395e-09
)
;

boundaryField
{
    top
    {
        type            uniformInletOutlet;
        uniformInletValue constant 0;
        value           uniform 1.77395e-09;
    }
    left
    {
        type            empty;
    }
    right
    {
        type            empty;
    }
    front
    {
        type            empty;
    }
    back
    {
        type            empty;
    }
    bottom
    {
        type            zeroGradient;
    }
}


// ************************************************************************* //
