/*--------------------------------*- C++ -*----------------------------------*\
  =========                 |
  \\      /  F ield         | OpenFOAM: The Open Source CFD Toolbox
   \\    /   O peration     | Website:  https://openfoam.org
    \\  /    A nd           | Version:  7
     \\/     M anipulation  |
\*---------------------------------------------------------------------------*/
FoamFile
{
    version     2.0;
    format      ascii;
    class       volScalarField;
    object      O2gas;
}
// * * * * * * * * * * * * * * * * * * * * * * * * * * * * * * * * * * * * * //

dimensions      [1 -3 0 0 0 0 0];

internalField   uniform 243.84E-3; 

boundaryField
{
    "(front|back|right|left)"
    {
        type    empty;
    }

    top
    {
        type	fixedValue;
        value	uniform 243.84E-3; //243.84 mg/L [Berlin 2014]
    }

    bottom
    {
        type    zeroGradient;
    }
}

// ************************************************************************* //
