/*--------------------------------*- C++ -*----------------------------------*\
  =========                 |
  \\      /  F ield         | OpenFOAM: The Open Source CFD Toolbox
   \\    /   O peration     | Website:  https://openfoam.org
    \\  /    A nd           | Version:  7
     \\/     M anipulation  |
\*---------------------------------------------------------------------------*/
FoamFile
{
    version     2.0;
    format      ascii;
    class       volScalarField;
    location    "863976.670";
    object      DOC;
}
// * * * * * * * * * * * * * * * * * * * * * * * * * * * * * * * * * * * * * //

dimensions      [1 -3 0 0 0 0 0];

internalField   nonuniform List<scalar> 
200
(
0.000441449
0.000440899
0.000440542
0.000440151
0.000439766
0.000439367
0.000438967
0.000438553
0.000438138
0.000437709
0.000437279
0.000436834
0.000436388
0.000435928
0.000435466
0.00043499
0.000434512
0.000434019
0.000433524
0.000433014
0.000432502
0.000431975
0.000431446
0.000430901
0.000430354
0.000429791
0.000429225
0.000428644
0.000428059
0.000427459
0.000426855
0.000426235
0.000425612
0.000424972
0.000424328
0.000423668
0.000423004
0.000422323
0.000421637
0.000420935
0.000420228
0.000419504
0.000418774
0.000418028
0.000417276
0.000416507
0.000415731
0.000414938
0.000414139
0.000413323
0.000412499
0.000411658
0.00041081
0.000409943
0.000409069
0.000408177
0.000407278
0.000406359
0.000405433
0.000404487
0.000403534
0.000402561
0.00040158
0.000400579
0.000399569
0.000398539
0.000397501
0.000396442
0.000395373
0.000394285
0.000393186
0.000392067
0.000390937
0.000389787
0.000388625
0.000387444
0.00038625
0.000385036
0.00038381
0.000382563
0.000381304
0.000380024
0.000378731
0.000377416
0.000376089
0.00037474
0.000373378
0.000371994
0.000370597
0.000369178
0.000367745
0.00036629
0.000364821
0.000363329
0.000361824
0.000360296
0.000358754
0.000357189
0.00035561
0.000354008
0.000352392
0.000350754
0.000349101
0.000347425
0.000345735
0.000344022
0.000342295
0.000340546
0.000338783
0.000336997
0.000335197
0.000333376
0.000331541
0.000329685
0.000327814
0.000325924
0.000324019
0.000322095
0.000320158
0.000318201
0.000316233
0.000314245
0.000312246
0.000310229
0.000308201
0.000306157
0.000304102
0.000302032
0.000299952
0.000297859
0.000295756
0.000293641
0.000291518
0.000289384
0.000287243
0.000285093
0.000282937
0.000280772
0.000278604
0.000276428
0.00027425
0.000272065
0.00026988
0.00026769
0.000265499
0.000263306
0.000261113
0.00025892
0.000256727
0.000254535
0.000252345
0.000250156
0.000247969
0.000245784
0.000243603
0.000241423
0.000239247
0.000237074
0.000234903
0.000232736
0.000230571
0.000228408
0.000226248
0.000224089
0.000221931
0.000219773
0.000217616
0.000215457
0.000213297
0.000211134
0.000208967
0.000206796
0.000204619
0.000202435
0.000200244
0.000198043
0.000195834
0.000193615
0.000191387
0.00018915
0.00018691
0.000184673
0.000182446
0.000180244
0.00017809
0.000176024
0.000174103
0.000172419
0.000171102
0.000170308
0.000170112
0.000172087
0.000177101
0.000188628
0.000213557
0.000270043
0.000408535
0.000786973
0.00183725
0.00606713
)
;

boundaryField
{
    top
    {
        type            uniformInletOutlet;
        uniformInletValue constant 0.01;
        value           uniform 0.01;
    }
    left
    {
        type            empty;
    }
    right
    {
        type            empty;
    }
    front
    {
        type            empty;
    }
    back
    {
        type            empty;
    }
    bottom
    {
        type            zeroGradient;
    }
}


// ************************************************************************* //
