/*--------------------------------*- C++ -*----------------------------------*\
  =========                 |
  \\      /  F ield         | OpenFOAM: The Open Source CFD Toolbox
   \\    /   O peration     | Website:  https://openfoam.org
    \\  /    A nd           | Version:  7
     \\/     M anipulation  |
\*---------------------------------------------------------------------------*/
FoamFile
{
    version     2.0;
    format      ascii;
    class       volScalarField;
    location    "863976.670";
    object      EPS;
}
// * * * * * * * * * * * * * * * * * * * * * * * * * * * * * * * * * * * * * //

dimensions      [1 -3 0 0 0 0 0];

internalField   nonuniform List<scalar> 
200
(
0.00383367
0.00385929
0.00388196
0.00390432
0.00392676
0.00394945
0.00397233
0.00399549
0.00401886
0.00404251
0.00406638
0.00409053
0.00411491
0.00413959
0.0041645
0.00418972
0.00421517
0.00424095
0.00426697
0.00429333
0.00431994
0.00434689
0.00437411
0.00440167
0.00442952
0.00445772
0.00448622
0.00451508
0.00454426
0.00457381
0.00460368
0.00463394
0.00466453
0.00469553
0.00472687
0.00475863
0.00479075
0.00482331
0.00485624
0.00488961
0.00492338
0.00495761
0.00499225
0.00502737
0.00506292
0.00509896
0.00513545
0.00517246
0.00520993
0.00524793
0.00528642
0.00532546
0.00536501
0.00540514
0.0054458
0.00548705
0.00552886
0.0055713
0.00561431
0.00565798
0.00570225
0.00574719
0.00579277
0.00583906
0.00588601
0.0059337
0.00598208
0.00603123
0.00608112
0.0061318
0.00618325
0.00623554
0.00628864
0.00634261
0.00639743
0.00645317
0.0065098
0.00656739
0.00662591
0.00668545
0.00674598
0.00680756
0.00687019
0.00693393
0.00699876
0.00706477
0.00713194
0.00720034
0.00726996
0.00734089
0.00741311
0.00748671
0.00756167
0.00763809
0.00771596
0.00779537
0.00787631
0.00795888
0.00804309
0.00812902
0.00821668
0.00830618
0.00839752
0.00849081
0.00858607
0.0086834
0.00878282
0.00888446
0.00898833
0.00909457
0.00920319
0.00931434
0.00942805
0.00954446
0.00966362
0.00978567
0.00991067
0.0100388
0.0101701
0.0103047
0.0104428
0.0105844
0.0107298
0.0108791
0.0110323
0.0111898
0.0113516
0.011518
0.011689
0.0118651
0.0120463
0.0122329
0.0124251
0.0126232
0.0128274
0.0130381
0.0132556
0.0134801
0.0137121
0.0139519
0.0141999
0.0144566
0.0147223
0.0149976
0.015283
0.0155791
0.0158865
0.0162058
0.0165377
0.0168831
0.0172426
0.0176173
0.0180081
0.0184161
0.0188423
0.0192882
0.0197549
0.0202442
0.0207575
0.0212968
0.021864
0.0224615
0.0230915
0.023757
0.024461
0.0252069
0.0259986
0.0268404
0.0277372
0.0286946
0.029719
0.0308176
0.0319988
0.0332722
0.034649
0.0361424
0.0377676
0.0395429
0.0414901
0.043635
0.0460093
0.0486515
0.0516093
0.0549421
0.0587253
0.0630554
0.0680586
0.0739023
0.0808135
0.0891074
0.0992343
0.111858
0.127995
0.149275
0.178447
0.220413
0.284353
0.387222
0.549267
0.805935
)
;

boundaryField
{
    top
    {
        type            zeroGradient;
    }
    left
    {
        type            empty;
    }
    right
    {
        type            empty;
    }
    front
    {
        type            empty;
    }
    back
    {
        type            empty;
    }
    bottom
    {
        type            zeroGradient;
    }
}


// ************************************************************************* //
