/*--------------------------------*- C++ -*----------------------------------*\
  =========                 |
  \\      /  F ield         | OpenFOAM: The Open Source CFD Toolbox
   \\    /   O peration     | Website:  https://openfoam.org
    \\  /    A nd           | Version:  7
     \\/     M anipulation  |
\*---------------------------------------------------------------------------*/
FoamFile
{
    version     2.0;
    format      ascii;
    class       volScalarField;
    location    "863976.670";
    object      h;
}
// * * * * * * * * * * * * * * * * * * * * * * * * * * * * * * * * * * * * * //

dimensions      [0 1 0 0 0 0 0];

internalField   nonuniform List<scalar> 
200
(
-0.0466677
-0.0466697
-0.0466728
-0.0466766
-0.0466809
-0.0466856
-0.0466906
-0.0466957
-0.0467009
-0.0467063
-0.0467116
-0.046717
-0.0467225
-0.0467279
-0.0467333
-0.0467388
-0.0467442
-0.0467496
-0.046755
-0.0467604
-0.0467658
-0.0467712
-0.0467766
-0.0467819
-0.0467873
-0.0467926
-0.0467979
-0.0468032
-0.0468084
-0.0468137
-0.0468189
-0.0468242
-0.0468294
-0.0468346
-0.0468397
-0.0468449
-0.04685
-0.0468551
-0.0468602
-0.0468653
-0.0468704
-0.0468754
-0.0468804
-0.0468854
-0.0468904
-0.0468953
-0.0469002
-0.0469051
-0.04691
-0.0469148
-0.0469196
-0.0469244
-0.0469292
-0.046934
-0.0469387
-0.0469433
-0.046948
-0.0469526
-0.0469572
-0.0469618
-0.0469663
-0.0469708
-0.0469753
-0.0469797
-0.0469841
-0.0469885
-0.0469928
-0.0469971
-0.0470013
-0.0470055
-0.0470097
-0.0470138
-0.0470179
-0.0470219
-0.0470259
-0.0470299
-0.0470338
-0.0470376
-0.0470414
-0.0470452
-0.0470489
-0.0470525
-0.0470561
-0.0470597
-0.0470631
-0.0470666
-0.0470699
-0.0470732
-0.0470764
-0.0470796
-0.0470827
-0.0470857
-0.0470887
-0.0470916
-0.0470944
-0.0470971
-0.0470997
-0.0471023
-0.0471048
-0.0471071
-0.0471094
-0.0471116
-0.0471137
-0.0471157
-0.0471176
-0.0471194
-0.0471211
-0.0471227
-0.0471241
-0.0471254
-0.0471266
-0.0471277
-0.0471286
-0.0471294
-0.04713
-0.0471305
-0.0471309
-0.0471311
-0.0471311
-0.0471309
-0.0471306
-0.04713
-0.0471293
-0.0471284
-0.0471272
-0.0471259
-0.0471243
-0.0471225
-0.0471204
-0.0471181
-0.0471155
-0.0471126
-0.0471094
-0.0471059
-0.0471021
-0.047098
-0.0470935
-0.0470887
-0.0470834
-0.0470778
-0.0470717
-0.0470652
-0.0470582
-0.0470507
-0.0470427
-0.0470341
-0.047025
-0.0470152
-0.0470048
-0.0469937
-0.0469819
-0.0469693
-0.0469559
-0.0469416
-0.0469263
-0.0469101
-0.0468928
-0.0468743
-0.0468546
-0.0468337
-0.0468113
-0.0467873
-0.0467618
-0.0467344
-0.0467052
-0.0466738
-0.0466402
-0.046604
-0.0465652
-0.0465233
-0.0464782
-0.0464294
-0.0463765
-0.0463192
-0.0462569
-0.046189
-0.0461147
-0.0460332
-0.0459436
-0.0458447
-0.0457349
-0.0456127
-0.0454758
-0.0453217
-0.045147
-0.0449476
-0.044718
-0.044451
-0.044137
-0.0437628
-0.0433094
-0.0427492
-0.0420396
-0.041112
-0.039847
-0.0380194
-0.035152
-0.0300835
-0.0195959
0.0110455
)
;

boundaryField
{
    top
    {
        type            fixedValue;
        value           uniform 0.05;
    }
    left
    {
        type            empty;
    }
    right
    {
        type            empty;
    }
    front
    {
        type            empty;
    }
    back
    {
        type            empty;
    }
    bottom
    {
        type            fixedGradient;
        gradient        uniform 0;
    }
}


// ************************************************************************* //
