/*--------------------------------*- C++ -*----------------------------------*\
  =========                 |
  \\      /  F ield         | OpenFOAM: The Open Source CFD Toolbox
   \\    /   O peration     | Website:  https://openfoam.org
    \\  /    A nd           | Version:  7
     \\/     M anipulation  |
\*---------------------------------------------------------------------------*/
FoamFile
{
    version     2.0;
    format      ascii;
    class       volScalarField;
    location    "863976.670";
    object      hydraulicCond;
}
// * * * * * * * * * * * * * * * * * * * * * * * * * * * * * * * * * * * * * //

dimensions      [0 1 -1 0 0 0 0];

internalField   nonuniform List<scalar> 
200
(
1.21359e-05
1.21345e-05
1.21326e-05
1.21304e-05
1.2128e-05
1.21254e-05
1.21227e-05
1.21201e-05
1.21173e-05
1.21144e-05
1.21114e-05
1.21086e-05
1.21056e-05
1.21028e-05
1.20999e-05
1.20968e-05
1.2094e-05
1.20911e-05
1.20881e-05
1.20852e-05
1.20822e-05
1.20793e-05
1.20763e-05
1.20734e-05
1.20705e-05
1.20675e-05
1.20646e-05
1.20616e-05
1.20587e-05
1.20557e-05
1.20528e-05
1.20498e-05
1.20468e-05
1.20439e-05
1.2041e-05
1.20379e-05
1.20351e-05
1.20321e-05
1.20292e-05
1.20262e-05
1.20232e-05
1.20202e-05
1.20172e-05
1.20143e-05
1.20113e-05
1.20084e-05
1.20055e-05
1.20025e-05
1.19995e-05
1.19966e-05
1.19936e-05
1.19907e-05
1.19877e-05
1.19847e-05
1.19817e-05
1.19788e-05
1.19758e-05
1.19728e-05
1.19698e-05
1.19669e-05
1.19639e-05
1.19609e-05
1.19578e-05
1.1955e-05
1.19519e-05
1.19489e-05
1.1946e-05
1.19431e-05
1.194e-05
1.1937e-05
1.1934e-05
1.1931e-05
1.1928e-05
1.19251e-05
1.19221e-05
1.1919e-05
1.1916e-05
1.1913e-05
1.191e-05
1.1907e-05
1.19041e-05
1.1901e-05
1.1898e-05
1.18949e-05
1.1892e-05
1.1889e-05
1.18859e-05
1.18829e-05
1.18799e-05
1.18769e-05
1.18739e-05
1.18708e-05
1.18678e-05
1.18648e-05
1.18618e-05
1.18587e-05
1.18557e-05
1.18526e-05
1.18495e-05
1.18465e-05
1.18434e-05
1.18404e-05
1.18373e-05
1.18343e-05
1.18311e-05
1.1828e-05
1.1825e-05
1.1822e-05
1.18189e-05
1.18157e-05
1.18126e-05
1.18095e-05
1.18064e-05
1.18033e-05
1.18001e-05
1.1797e-05
1.1794e-05
1.17907e-05
1.17875e-05
1.17845e-05
1.17813e-05
1.17781e-05
1.17749e-05
1.17717e-05
1.17685e-05
1.17653e-05
1.17621e-05
1.17589e-05
1.17556e-05
1.17523e-05
1.17491e-05
1.17458e-05
1.17426e-05
1.17392e-05
1.17359e-05
1.17325e-05
1.17291e-05
1.17258e-05
1.17223e-05
1.17189e-05
1.17155e-05
1.1712e-05
1.17085e-05
1.1705e-05
1.17014e-05
1.16979e-05
1.16941e-05
1.16904e-05
1.16868e-05
1.1683e-05
1.16791e-05
1.16752e-05
1.16713e-05
1.16673e-05
1.16633e-05
1.16592e-05
1.16549e-05
1.16506e-05
1.16462e-05
1.16417e-05
1.1637e-05
1.16324e-05
1.16275e-05
1.16224e-05
1.16171e-05
1.16116e-05
1.1606e-05
1.16001e-05
1.15938e-05
1.15873e-05
1.15805e-05
1.15731e-05
1.15654e-05
1.15571e-05
1.15481e-05
1.15383e-05
1.15278e-05
1.15163e-05
1.15035e-05
1.14893e-05
1.14733e-05
1.14551e-05
1.14345e-05
1.14106e-05
1.13828e-05
1.13498e-05
1.13102e-05
1.12619e-05
1.12019e-05
1.1126e-05
1.10277e-05
1.08968e-05
1.0717e-05
1.04607e-05
1.00785e-05
9.47946e-06
8.49446e-06
6.85135e-06
4.43396e-06
1.25464e-06
)
;

boundaryField
{
    top
    {
        type            calculated;
        value           uniform 1.25464e-06;
    }
    left
    {
        type            empty;
    }
    right
    {
        type            empty;
    }
    front
    {
        type            empty;
    }
    back
    {
        type            empty;
    }
    bottom
    {
        type            calculated;
        value           uniform 1.21359e-05;
    }
}


// ************************************************************************* //
