/*--------------------------------*- C++ -*----------------------------------*\
  =========                 |
  \\      /  F ield         | OpenFOAM: The Open Source CFD Toolbox
   \\    /   O peration     | Website:  https://openfoam.org
    \\  /    A nd           | Version:  7
     \\/     M anipulation  |
\*---------------------------------------------------------------------------*/
FoamFile
{
    version     2.0;
    format      ascii;
    class       volScalarField;
    location    "863976.670";
    object      NH4;
}
// * * * * * * * * * * * * * * * * * * * * * * * * * * * * * * * * * * * * * //

dimensions      [1 -3 0 0 0 0 0];

internalField   nonuniform List<scalar> 
200
(
1.84855e-05
1.85783e-05
1.86421e-05
1.87066e-05
1.87722e-05
1.88388e-05
1.89064e-05
1.8975e-05
1.90449e-05
1.91157e-05
1.91877e-05
1.92608e-05
1.93353e-05
1.94108e-05
1.94877e-05
1.95658e-05
1.96454e-05
1.97262e-05
1.98084e-05
1.98921e-05
1.99772e-05
2.00639e-05
2.01521e-05
2.02419e-05
2.03333e-05
2.04264e-05
2.05213e-05
2.06179e-05
2.07164e-05
2.08167e-05
2.09189e-05
2.10232e-05
2.11295e-05
2.12378e-05
2.13484e-05
2.14612e-05
2.15762e-05
2.16937e-05
2.18135e-05
2.19359e-05
2.20609e-05
2.21885e-05
2.23189e-05
2.24521e-05
2.25882e-05
2.27273e-05
2.28696e-05
2.3015e-05
2.31638e-05
2.3316e-05
2.34717e-05
2.36311e-05
2.37942e-05
2.39612e-05
2.41323e-05
2.43075e-05
2.4487e-05
2.4671e-05
2.48596e-05
2.50529e-05
2.52512e-05
2.54547e-05
2.56634e-05
2.58776e-05
2.60975e-05
2.63233e-05
2.65551e-05
2.67934e-05
2.70382e-05
2.72898e-05
2.75486e-05
2.78147e-05
2.80884e-05
2.837e-05
2.86599e-05
2.89584e-05
2.92658e-05
2.95824e-05
2.99087e-05
3.0245e-05
3.05917e-05
3.09493e-05
3.13182e-05
3.16989e-05
3.20919e-05
3.24977e-05
3.29169e-05
3.33499e-05
3.37975e-05
3.42603e-05
3.47389e-05
3.5234e-05
3.57464e-05
3.62768e-05
3.68261e-05
3.73951e-05
3.79847e-05
3.85958e-05
3.92296e-05
3.98869e-05
4.0569e-05
4.1277e-05
4.20122e-05
4.27758e-05
4.35692e-05
4.43939e-05
4.52514e-05
4.61433e-05
4.70713e-05
4.80372e-05
4.9043e-05
5.00905e-05
5.11821e-05
5.23197e-05
5.3506e-05
5.47432e-05
5.60342e-05
5.73816e-05
5.87884e-05
6.02578e-05
6.17929e-05
6.33974e-05
6.50748e-05
6.6829e-05
6.86642e-05
7.05847e-05
7.2595e-05
7.46999e-05
7.69046e-05
7.92145e-05
8.16351e-05
8.41725e-05
8.6833e-05
8.96232e-05
9.25501e-05
9.56211e-05
9.88439e-05
0.000102227
0.000105778
0.000109507
0.000113422
0.000117534
0.000121854
0.000126391
0.000131157
0.000136164
0.000141423
0.000146949
0.000152753
0.000158849
0.000165252
0.000171976
0.000179035
0.000186446
0.000194224
0.000202384
0.000210944
0.000219919
0.000229327
0.000239184
0.000249507
0.000260313
0.000271618
0.000283438
0.00029579
0.000308688
0.000322148
0.000336182
0.000350804
0.000366025
0.000381855
0.000398302
0.000415371
0.000433066
0.000451388
0.000470332
0.000489893
0.000510058
0.000530808
0.00055212
0.000573961
0.000596286
0.000619042
0.000642158
0.000665545
0.000689031
0.000712463
0.000735671
0.000758387
0.000780254
0.000800783
0.000819294
0.000834868
0.000846289
0.000852262
0.00085256
0.000826721
0.000789845
0.000738759
0.000924578
)
;

boundaryField
{
    top
    {
        type            uniformInletOutlet;
        uniformInletValue constant 0.001;
        value           uniform 0.001;
    }
    left
    {
        type            empty;
    }
    right
    {
        type            empty;
    }
    front
    {
        type            empty;
    }
    back
    {
        type            empty;
    }
    bottom
    {
        type            zeroGradient;
    }
}


// ************************************************************************* //
