/*--------------------------------*- C++ -*----------------------------------*\
  =========                 |
  \\      /  F ield         | OpenFOAM: The Open Source CFD Toolbox
   \\    /   O peration     | Website:  https://openfoam.org
    \\  /    A nd           | Version:  7
     \\/     M anipulation  |
\*---------------------------------------------------------------------------*/
FoamFile
{
    version     2.0;
    format      ascii;
    class       volScalarField;
    location    "863976.670";
    object      NO3;
}
// * * * * * * * * * * * * * * * * * * * * * * * * * * * * * * * * * * * * * //

dimensions      [1 -3 0 0 0 0 0];

internalField   nonuniform List<scalar> 
200
(
0.00279127
0.00279197
0.00279252
0.00279301
0.0027935
0.00279399
0.00279447
0.00279495
0.00279544
0.00279592
0.00279639
0.00279687
0.00279735
0.00279782
0.00279829
0.00279876
0.00279923
0.0027997
0.00280016
0.00280062
0.00280109
0.00280155
0.002802
0.00280246
0.00280291
0.00280336
0.00280381
0.00280426
0.0028047
0.00280515
0.00280559
0.00280602
0.00280646
0.00280689
0.00280732
0.00280774
0.00280816
0.00280858
0.002809
0.00280941
0.00280982
0.00281023
0.00281063
0.00281103
0.00281142
0.00281181
0.0028122
0.00281258
0.00281296
0.00281333
0.0028137
0.00281406
0.00281442
0.00281478
0.00281513
0.00281547
0.00281581
0.00281614
0.00281646
0.00281678
0.0028171
0.0028174
0.0028177
0.002818
0.00281828
0.00281856
0.00281883
0.0028191
0.00281935
0.0028196
0.00281984
0.00282006
0.00282028
0.00282049
0.00282069
0.00282088
0.00282106
0.00282123
0.00282139
0.00282153
0.00282166
0.00282178
0.00282189
0.00282198
0.00282206
0.00282212
0.00282217
0.00282221
0.00282223
0.00282223
0.00282221
0.00282218
0.00282212
0.00282205
0.00282196
0.00282184
0.0028217
0.00282154
0.00282135
0.00282114
0.00282091
0.00282064
0.00282035
0.00282003
0.00281968
0.00281929
0.00281888
0.00281842
0.00281793
0.00281741
0.00281684
0.00281623
0.00281558
0.00281488
0.00281414
0.00281334
0.00281249
0.00281159
0.00281063
0.00280961
0.00280853
0.00280738
0.00280616
0.00280487
0.0028035
0.00280206
0.00280053
0.00279891
0.0027972
0.00279539
0.00279348
0.00279146
0.00278933
0.00278708
0.0027847
0.0027822
0.00277955
0.00277676
0.00277382
0.00277072
0.00276745
0.00276401
0.00276037
0.00275655
0.00275251
0.00274827
0.00274379
0.00273908
0.00273412
0.0027289
0.00272341
0.00271763
0.00271155
0.00270516
0.00269844
0.00269138
0.00268396
0.00267617
0.00266798
0.0026594
0.0026504
0.00264095
0.00263106
0.00262069
0.00260984
0.00259849
0.00258661
0.0025742
0.00256123
0.0025477
0.00253358
0.00251887
0.00250354
0.00248758
0.00247098
0.00245374
0.00243583
0.00241725
0.00239799
0.00237805
0.00235741
0.00233609
0.00231408
0.00229139
0.00226802
0.00224399
0.00221931
0.002194
0.00216809
0.00214159
0.00211451
0.00208684
0.00205843
0.00202889
0.00199706
0.0019598
0.00190947
0.00183956
0.0017345
0.00196647
)
;

boundaryField
{
    top
    {
        type            uniformInletOutlet;
        uniformInletValue constant 0.002;
        value           uniform 0.002;
    }
    left
    {
        type            empty;
    }
    right
    {
        type            empty;
    }
    front
    {
        type            empty;
    }
    back
    {
        type            empty;
    }
    bottom
    {
        type            zeroGradient;
    }
}


// ************************************************************************* //
