/*--------------------------------*- C++ -*----------------------------------*\
  =========                 |
  \\      /  F ield         | OpenFOAM: The Open Source CFD Toolbox
   \\    /   O peration     | Website:  https://openfoam.org
    \\  /    A nd           | Version:  7
     \\/     M anipulation  |
\*---------------------------------------------------------------------------*/
FoamFile
{
    version     2.0;
    format      ascii;
    class       volScalarField;
    location    "863976.670";
    object      O2;
}
// * * * * * * * * * * * * * * * * * * * * * * * * * * * * * * * * * * * * * //

dimensions      [1 -3 0 0 0 0 0];

internalField   nonuniform List<scalar> 
200
(
0.00312983
0.00312653
0.00312445
0.00312223
0.00312007
0.0031179
0.00311575
0.0031136
0.00311146
0.00310932
0.00310719
0.00310507
0.00310296
0.00310085
0.00309876
0.00309667
0.00309459
0.00309252
0.00309046
0.00308841
0.00308637
0.00308434
0.00308232
0.00308031
0.00307831
0.00307633
0.00307435
0.00307239
0.00307044
0.0030685
0.00306658
0.00306467
0.00306277
0.00306089
0.00305902
0.00305717
0.00305533
0.00305351
0.0030517
0.00304992
0.00304814
0.00304639
0.00304466
0.00304294
0.00304124
0.00303957
0.00303791
0.00303627
0.00303466
0.00303307
0.0030315
0.00302996
0.00302843
0.00302694
0.00302547
0.00302403
0.00302261
0.00302122
0.00301986
0.00301853
0.00301723
0.00301597
0.00301473
0.00301353
0.00301237
0.00301124
0.00301014
0.00300909
0.00300807
0.0030071
0.00300616
0.00300527
0.00300443
0.00300363
0.00300287
0.00300217
0.00300152
0.00300092
0.00300037
0.00299988
0.00299945
0.00299908
0.00299877
0.00299853
0.00299835
0.00299824
0.00299819
0.00299821
0.00299833
0.00299853
0.00299879
0.00299918
0.00299962
0.00300017
0.00300082
0.00300155
0.00300241
0.00300336
0.00300443
0.00300563
0.00300693
0.00300837
0.00300994
0.00301165
0.0030135
0.00301551
0.00301767
0.00301999
0.00302249
0.00302516
0.00302803
0.00303108
0.00303434
0.00303782
0.00304152
0.00304545
0.00304962
0.00305405
0.00305875
0.00306373
0.003069
0.00307458
0.00308049
0.00308673
0.00309334
0.00310031
0.00310768
0.00311545
0.00312366
0.00313233
0.00314147
0.00315111
0.00316128
0.003172
0.0031833
0.00319521
0.00320777
0.003221
0.00323494
0.00324962
0.00326509
0.00328138
0.00329854
0.0033166
0.00333562
0.00335564
0.00337671
0.00339888
0.00342221
0.00344676
0.00347257
0.00349972
0.00352825
0.00355825
0.00358977
0.00362288
0.00365765
0.00369415
0.00373246
0.00377265
0.0038148
0.00385898
0.00390527
0.00395375
0.0040045
0.0040576
0.00411312
0.00417115
0.00423175
0.00429501
0.00436101
0.0044298
0.00450147
0.00457608
0.00465369
0.00473437
0.00481816
0.00490511
0.00499528
0.00508868
0.00518535
0.0052853
0.00538853
0.00549502
0.00560474
0.00571763
0.00583358
0.00595245
0.00607403
0.00619799
0.00632377
0.00644946
0.00657379
0.00669322
0.0068013
0.00688686
0.00693485
0.00694107
0.00667491
0.00844241
)
;

boundaryField
{
    top
    {
        type            uniformInletOutlet;
        uniformInletValue constant 0.009;
        value           uniform 0.009;
    }
    left
    {
        type            empty;
    }
    right
    {
        type            empty;
    }
    front
    {
        type            empty;
    }
    back
    {
        type            empty;
    }
    bottom
    {
        type            zeroGradient;
    }
}


// ************************************************************************* //
