/*--------------------------------*- C++ -*----------------------------------*\
  =========                 |
  \\      /  F ield         | OpenFOAM: The Open Source CFD Toolbox
   \\    /   O peration     | Website:  https://openfoam.org
    \\  /    A nd           | Version:  7
     \\/     M anipulation  |
\*---------------------------------------------------------------------------*/
FoamFile
{
    version     2.0;
    format      ascii;
    class       surfaceScalarField;
    location    "863976.670";
    object      phi;
}
// * * * * * * * * * * * * * * * * * * * * * * * * * * * * * * * * * * * * * //

dimensions      [0 3 -1 0 0 0 0];

internalField   nonuniform List<scalar> 
199
(
-4.85327e-07
-4.85194e-07
-4.85077e-07
-4.84959e-07
-4.84842e-07
-4.84725e-07
-4.84608e-07
-4.84491e-07
-4.84374e-07
-4.84257e-07
-4.8414e-07
-4.84023e-07
-4.83906e-07
-4.83789e-07
-4.83672e-07
-4.83555e-07
-4.83438e-07
-4.83321e-07
-4.83204e-07
-4.83087e-07
-4.8297e-07
-4.82853e-07
-4.82736e-07
-4.82619e-07
-4.82502e-07
-4.82385e-07
-4.82268e-07
-4.82151e-07
-4.82034e-07
-4.81917e-07
-4.818e-07
-4.81683e-07
-4.81566e-07
-4.81448e-07
-4.81331e-07
-4.81214e-07
-4.81097e-07
-4.8098e-07
-4.80862e-07
-4.80745e-07
-4.80628e-07
-4.80511e-07
-4.80393e-07
-4.80276e-07
-4.80159e-07
-4.80041e-07
-4.79924e-07
-4.79807e-07
-4.79689e-07
-4.79572e-07
-4.79455e-07
-4.79337e-07
-4.7922e-07
-4.79102e-07
-4.78985e-07
-4.78868e-07
-4.7875e-07
-4.78633e-07
-4.78515e-07
-4.78398e-07
-4.7828e-07
-4.78163e-07
-4.78045e-07
-4.77928e-07
-4.7781e-07
-4.77693e-07
-4.77575e-07
-4.77457e-07
-4.7734e-07
-4.77222e-07
-4.77105e-07
-4.76987e-07
-4.76869e-07
-4.76752e-07
-4.76634e-07
-4.76516e-07
-4.76399e-07
-4.76281e-07
-4.76163e-07
-4.76046e-07
-4.75928e-07
-4.7581e-07
-4.75693e-07
-4.75575e-07
-4.75457e-07
-4.75339e-07
-4.75222e-07
-4.75104e-07
-4.74986e-07
-4.74868e-07
-4.7475e-07
-4.74633e-07
-4.74515e-07
-4.74397e-07
-4.74279e-07
-4.74161e-07
-4.74043e-07
-4.73926e-07
-4.73808e-07
-4.7369e-07
-4.73572e-07
-4.73454e-07
-4.73336e-07
-4.73218e-07
-4.731e-07
-4.72983e-07
-4.72865e-07
-4.72747e-07
-4.72629e-07
-4.72511e-07
-4.72393e-07
-4.72275e-07
-4.72157e-07
-4.72039e-07
-4.71921e-07
-4.71803e-07
-4.71685e-07
-4.71567e-07
-4.7145e-07
-4.71332e-07
-4.71214e-07
-4.71096e-07
-4.70978e-07
-4.7086e-07
-4.70742e-07
-4.70624e-07
-4.70506e-07
-4.70388e-07
-4.7027e-07
-4.70152e-07
-4.70034e-07
-4.69916e-07
-4.69798e-07
-4.6968e-07
-4.69563e-07
-4.69445e-07
-4.69327e-07
-4.69209e-07
-4.69091e-07
-4.68973e-07
-4.68855e-07
-4.68737e-07
-4.6862e-07
-4.68502e-07
-4.68384e-07
-4.68266e-07
-4.68148e-07
-4.68031e-07
-4.67913e-07
-4.67795e-07
-4.67678e-07
-4.6756e-07
-4.67442e-07
-4.67325e-07
-4.67207e-07
-4.6709e-07
-4.66972e-07
-4.66855e-07
-4.66738e-07
-4.6662e-07
-4.66503e-07
-4.66386e-07
-4.66269e-07
-4.66152e-07
-4.66035e-07
-4.65918e-07
-4.65802e-07
-4.65685e-07
-4.65569e-07
-4.65452e-07
-4.65336e-07
-4.6522e-07
-4.65105e-07
-4.6499e-07
-4.64875e-07
-4.6476e-07
-4.64646e-07
-4.64533e-07
-4.6442e-07
-4.64308e-07
-4.64198e-07
-4.64089e-07
-4.63982e-07
-4.63878e-07
-4.63779e-07
-4.63685e-07
-4.636e-07
-4.63527e-07
-4.63476e-07
-4.63459e-07
-4.63503e-07
-4.63658e-07
-4.64034e-07
-4.64885e-07
-4.66832e-07
-4.71396e-07
-4.80907e-07
-5.14647e-07
-4.52095e-07
)
;

boundaryField
{
    top
    {
        type            calculated;
        value           uniform -4.4118e-07;
    }
    left
    {
        type            empty;
        value           nonuniform 0();
    }
    right
    {
        type            empty;
        value           nonuniform 0();
    }
    front
    {
        type            empty;
        value           nonuniform 0();
    }
    back
    {
        type            empty;
        value           nonuniform 0();
    }
    bottom
    {
        type            calculated;
        value           uniform 4.85434e-07;
    }
}


// ************************************************************************* //
