/*--------------------------------*- C++ -*----------------------------------*\
  =========                 |
  \\      /  F ield         | OpenFOAM: The Open Source CFD Toolbox
   \\    /   O peration     | Website:  https://openfoam.org
    \\  /    A nd           | Version:  7
     \\/     M anipulation  |
\*---------------------------------------------------------------------------*/
FoamFile
{
    version     2.0;
    format      ascii;
    class       volScalarField;
    location    "863976.670";
    object      porosity;
}
// * * * * * * * * * * * * * * * * * * * * * * * * * * * * * * * * * * * * * //

dimensions      [0 0 0 0 0 0 0];

internalField   nonuniform List<scalar> 
200
(
0.357338
0.357334
0.35733
0.357326
0.357322
0.357318
0.357314
0.357311
0.357307
0.357303
0.357298
0.357294
0.35729
0.357286
0.357282
0.357277
0.357273
0.357269
0.357264
0.35726
0.357255
0.357251
0.357246
0.357241
0.357237
0.357232
0.357227
0.357222
0.357217
0.357212
0.357207
0.357202
0.357196
0.357191
0.357186
0.35718
0.357175
0.357169
0.357164
0.357158
0.357152
0.357146
0.35714
0.357134
0.357128
0.357122
0.357116
0.35711
0.357103
0.357097
0.35709
0.357084
0.357077
0.35707
0.357063
0.357056
0.357049
0.357041
0.357034
0.357027
0.357019
0.357011
0.357003
0.356996
0.356987
0.356979
0.356971
0.356963
0.356954
0.356945
0.356936
0.356927
0.356918
0.356909
0.3569
0.35689
0.35688
0.35687
0.35686
0.35685
0.35684
0.356829
0.356818
0.356807
0.356796
0.356785
0.356773
0.356761
0.356749
0.356737
0.356725
0.356712
0.356699
0.356686
0.356673
0.356659
0.356645
0.356631
0.356616
0.356601
0.356586
0.356571
0.356555
0.356539
0.356522
0.356505
0.356488
0.356471
0.356453
0.356434
0.356415
0.356396
0.356376
0.356356
0.356335
0.356314
0.356293
0.35627
0.356247
0.356224
0.3562
0.356175
0.35615
0.356124
0.356097
0.35607
0.356042
0.356013
0.355983
0.355952
0.355921
0.355888
0.355855
0.35582
0.355784
0.355747
0.355709
0.35567
0.355629
0.355587
0.355544
0.355499
0.355452
0.355404
0.355354
0.355302
0.355247
0.355191
0.355133
0.355072
0.355008
0.354942
0.354873
0.354801
0.354726
0.354647
0.354564
0.354477
0.354386
0.35429
0.354189
0.354083
0.353971
0.353852
0.353726
0.353592
0.353451
0.3533
0.353138
0.352966
0.352782
0.352583
0.35237
0.352139
0.351889
0.351617
0.351321
0.350997
0.35064
0.350246
0.349808
0.349319
0.34877
0.348149
0.347442
0.346628
0.345682
0.344571
0.343247
0.341647
0.339674
0.337188
0.333966
0.329647
0.3236
0.314664
0.300588
0.277093
0.238856
0.180154
)
;

boundaryField
{
    top
    {
        type            zeroGradient;
    }
    left
    {
        type            empty;
    }
    right
    {
        type            empty;
    }
    front
    {
        type            empty;
    }
    back
    {
        type            empty;
    }
    bottom
    {
        type            zeroGradient;
    }
}


// ************************************************************************* //
