/*--------------------------------*- C++ -*----------------------------------*\
  =========                 |
  \\      /  F ield         | OpenFOAM: The Open Source CFD Toolbox
   \\    /   O peration     | Website:  https://openfoam.org
    \\  /    A nd           | Version:  7
     \\/     M anipulation  |
\*---------------------------------------------------------------------------*/
FoamFile
{
    version     2.0;
    format      ascii;
    class       volScalarField;
    location    "863976.670";
    object      rDN;
}
// * * * * * * * * * * * * * * * * * * * * * * * * * * * * * * * * * * * * * //

dimensions      [0 0 -1 0 0 0 0];

internalField   nonuniform List<scalar> 
200
(
5.78811e-06
5.78835e-06
5.78842e-06
5.78837e-06
5.78828e-06
5.78807e-06
5.78782e-06
5.78744e-06
5.78703e-06
5.78649e-06
5.78591e-06
5.78518e-06
5.78442e-06
5.78352e-06
5.78257e-06
5.78148e-06
5.78035e-06
5.77907e-06
5.77774e-06
5.77624e-06
5.77471e-06
5.77302e-06
5.77128e-06
5.76937e-06
5.76742e-06
5.76528e-06
5.7631e-06
5.76075e-06
5.75832e-06
5.75574e-06
5.75307e-06
5.75023e-06
5.74733e-06
5.74423e-06
5.74106e-06
5.7377e-06
5.73427e-06
5.73064e-06
5.72693e-06
5.72301e-06
5.71903e-06
5.71483e-06
5.71052e-06
5.70603e-06
5.70143e-06
5.69661e-06
5.69169e-06
5.68655e-06
5.6813e-06
5.67583e-06
5.67024e-06
5.66441e-06
5.65849e-06
5.6523e-06
5.64599e-06
5.63943e-06
5.63276e-06
5.62582e-06
5.61874e-06
5.6114e-06
5.60393e-06
5.59617e-06
5.58827e-06
5.5801e-06
5.57174e-06
5.56312e-06
5.55434e-06
5.54526e-06
5.53599e-06
5.52644e-06
5.5167e-06
5.50666e-06
5.4964e-06
5.48584e-06
5.47508e-06
5.464e-06
5.45268e-06
5.44105e-06
5.4292e-06
5.417e-06
5.40456e-06
5.39178e-06
5.37874e-06
5.36534e-06
5.35169e-06
5.33767e-06
5.32339e-06
5.30875e-06
5.29378e-06
5.27843e-06
5.26281e-06
5.24674e-06
5.2304e-06
5.21362e-06
5.19653e-06
5.17904e-06
5.16117e-06
5.1429e-06
5.12426e-06
5.10516e-06
5.08573e-06
5.06583e-06
5.04555e-06
5.02479e-06
5.00365e-06
4.982e-06
4.95997e-06
4.93743e-06
4.91447e-06
4.891e-06
4.86708e-06
4.84265e-06
4.81777e-06
4.79234e-06
4.76644e-06
4.74e-06
4.71307e-06
4.68558e-06
4.65759e-06
4.62901e-06
4.59994e-06
4.57027e-06
4.54006e-06
4.50926e-06
4.4779e-06
4.44595e-06
4.41342e-06
4.38029e-06
4.34657e-06
4.31222e-06
4.27727e-06
4.24169e-06
4.2055e-06
4.16866e-06
4.13121e-06
4.09311e-06
4.05437e-06
4.01496e-06
3.97493e-06
3.93422e-06
3.89288e-06
3.85085e-06
3.80819e-06
3.76485e-06
3.72086e-06
3.6762e-06
3.63089e-06
3.58493e-06
3.53831e-06
3.49105e-06
3.44316e-06
3.39462e-06
3.34547e-06
3.2957e-06
3.24534e-06
3.19439e-06
3.14287e-06
3.09081e-06
3.03821e-06
2.98511e-06
2.93152e-06
2.87747e-06
2.823e-06
2.76813e-06
2.71289e-06
2.65732e-06
2.60146e-06
2.54534e-06
2.48901e-06
2.43251e-06
2.37586e-06
2.31914e-06
2.26236e-06
2.20558e-06
2.14886e-06
2.0922e-06
2.0357e-06
1.97937e-06
1.92327e-06
1.86746e-06
1.812e-06
1.75697e-06
1.70246e-06
1.64858e-06
1.59548e-06
1.54342e-06
1.49274e-06
1.44393e-06
1.39766e-06
1.3546e-06
1.31465e-06
1.28721e-06
1.2752e-06
1.29489e-06
1.37336e-06
1.56889e-06
1.97646e-06
2.62658e-06
3.09873e-06
1.95934e-06
)
;

boundaryField
{
    top
    {
        type            calculated;
        value           uniform 1.96096e-06;
    }
    left
    {
        type            empty;
    }
    right
    {
        type            empty;
    }
    front
    {
        type            empty;
    }
    back
    {
        type            empty;
    }
    bottom
    {
        type            calculated;
        value           uniform 5.78811e-06;
    }
}


// ************************************************************************* //
