/*--------------------------------*- C++ -*----------------------------------*\
  =========                 |
  \\      /  F ield         | OpenFOAM: The Open Source CFD Toolbox
   \\    /   O peration     | Website:  https://openfoam.org
    \\  /    A nd           | Version:  7
     \\/     M anipulation  |
\*---------------------------------------------------------------------------*/
FoamFile
{
    version     2.0;
    format      ascii;
    class       volScalarField;
    location    "863976.670";
    object      rH;
}
// * * * * * * * * * * * * * * * * * * * * * * * * * * * * * * * * * * * * * //

dimensions      [0 0 -1 0 0 0 0];

internalField   nonuniform List<scalar> 
200
(
4.59617e-07
4.60938e-07
4.61864e-07
4.62765e-07
4.63691e-07
4.64619e-07
4.65564e-07
4.6651e-07
4.67477e-07
4.68445e-07
4.69431e-07
4.70419e-07
4.7143e-07
4.72441e-07
4.73474e-07
4.74511e-07
4.75571e-07
4.76633e-07
4.77716e-07
4.78806e-07
4.79916e-07
4.81036e-07
4.82176e-07
4.83324e-07
4.84494e-07
4.85673e-07
4.86877e-07
4.8809e-07
4.89327e-07
4.90575e-07
4.91846e-07
4.93131e-07
4.94443e-07
4.95764e-07
4.97115e-07
4.98479e-07
4.9987e-07
5.01279e-07
5.02714e-07
5.04167e-07
5.05652e-07
5.07153e-07
5.08686e-07
5.10238e-07
5.11824e-07
5.13429e-07
5.1507e-07
5.16732e-07
5.18432e-07
5.20157e-07
5.21917e-07
5.23705e-07
5.25531e-07
5.27385e-07
5.29281e-07
5.31207e-07
5.33176e-07
5.35177e-07
5.37225e-07
5.39303e-07
5.41433e-07
5.436e-07
5.45816e-07
5.4807e-07
5.50379e-07
5.52727e-07
5.55132e-07
5.57583e-07
5.6009e-07
5.62646e-07
5.65265e-07
5.67933e-07
5.70666e-07
5.73452e-07
5.76306e-07
5.7922e-07
5.82203e-07
5.85248e-07
5.88369e-07
5.91554e-07
5.94818e-07
5.98152e-07
6.01568e-07
6.05057e-07
6.08634e-07
6.12288e-07
6.16035e-07
6.19861e-07
6.23786e-07
6.27797e-07
6.31909e-07
6.36111e-07
6.40419e-07
6.44821e-07
6.49337e-07
6.53951e-07
6.58681e-07
6.63514e-07
6.6847e-07
6.73533e-07
6.78722e-07
6.84026e-07
6.8946e-07
6.9501e-07
7.00695e-07
7.06501e-07
7.12446e-07
7.18516e-07
7.24728e-07
7.31066e-07
7.3755e-07
7.44163e-07
7.50925e-07
7.57816e-07
7.64854e-07
7.72025e-07
7.79341e-07
7.86789e-07
7.94383e-07
8.02103e-07
8.09967e-07
8.17953e-07
8.26077e-07
8.34316e-07
8.42686e-07
8.51167e-07
8.59765e-07
8.68461e-07
8.77263e-07
8.86154e-07
8.95131e-07
9.04179e-07
9.13299e-07
9.22469e-07
9.31688e-07
9.40937e-07
9.5021e-07
9.59485e-07
9.68759e-07
9.78004e-07
9.87217e-07
9.96366e-07
1.00546e-06
1.01446e-06
1.02335e-06
1.03211e-06
1.04073e-06
1.0492e-06
1.05748e-06
1.06555e-06
1.07341e-06
1.08103e-06
1.08838e-06
1.09544e-06
1.10222e-06
1.10866e-06
1.11478e-06
1.12053e-06
1.1259e-06
1.13089e-06
1.13546e-06
1.13961e-06
1.14331e-06
1.14656e-06
1.14933e-06
1.1516e-06
1.15339e-06
1.15465e-06
1.15538e-06
1.15557e-06
1.1552e-06
1.15426e-06
1.15274e-06
1.15062e-06
1.1479e-06
1.14454e-06
1.14055e-06
1.13591e-06
1.13061e-06
1.12463e-06
1.11799e-06
1.1107e-06
1.10277e-06
1.09424e-06
1.08521e-06
1.07583e-06
1.06635e-06
1.0572e-06
1.04897e-06
1.04229e-06
1.03717e-06
1.04223e-06
1.0611e-06
1.11105e-06
1.22403e-06
1.47907e-06
2.05729e-06
3.35932e-06
5.54534e-06
8.09594e-06
)
;

boundaryField
{
    top
    {
        type            calculated;
        value           uniform 1.0837e-05;
    }
    left
    {
        type            empty;
    }
    right
    {
        type            empty;
    }
    front
    {
        type            empty;
    }
    back
    {
        type            empty;
    }
    bottom
    {
        type            calculated;
        value           uniform 4.59617e-07;
    }
}


// ************************************************************************* //
