/*--------------------------------*- C++ -*----------------------------------*\
  =========                 |
  \\      /  F ield         | OpenFOAM: The Open Source CFD Toolbox
   \\    /   O peration     | Website:  https://openfoam.org
    \\  /    A nd           | Version:  7
     \\/     M anipulation  |
\*---------------------------------------------------------------------------*/
FoamFile
{
    version     2.0;
    format      ascii;
    class       volScalarField;
    location    "863976.670";
    object      rN;
}
// * * * * * * * * * * * * * * * * * * * * * * * * * * * * * * * * * * * * * //

dimensions      [0 0 -1 0 0 0 0];

internalField   nonuniform List<scalar> 
200
(
1.98726e-06
1.99656e-06
2.00295e-06
2.00941e-06
2.01598e-06
2.02264e-06
2.02941e-06
2.03628e-06
2.04328e-06
2.05037e-06
2.05758e-06
2.0649e-06
2.07236e-06
2.07992e-06
2.08762e-06
2.09544e-06
2.10341e-06
2.1115e-06
2.11973e-06
2.12811e-06
2.13663e-06
2.14531e-06
2.15414e-06
2.16313e-06
2.17228e-06
2.1816e-06
2.1911e-06
2.20076e-06
2.21062e-06
2.22065e-06
2.23088e-06
2.24131e-06
2.25194e-06
2.26277e-06
2.27383e-06
2.28511e-06
2.29661e-06
2.30835e-06
2.32032e-06
2.33255e-06
2.34503e-06
2.35778e-06
2.3708e-06
2.38409e-06
2.39767e-06
2.41155e-06
2.42574e-06
2.44024e-06
2.45507e-06
2.47024e-06
2.48575e-06
2.50163e-06
2.51786e-06
2.53448e-06
2.5515e-06
2.56892e-06
2.58676e-06
2.60504e-06
2.62377e-06
2.64295e-06
2.66263e-06
2.68281e-06
2.70349e-06
2.7247e-06
2.74647e-06
2.76881e-06
2.79173e-06
2.81527e-06
2.83944e-06
2.86427e-06
2.88979e-06
2.916e-06
2.94295e-06
2.97065e-06
2.99914e-06
3.02845e-06
3.05861e-06
3.08965e-06
3.1216e-06
3.1545e-06
3.18838e-06
3.22328e-06
3.25925e-06
3.29633e-06
3.33456e-06
3.37399e-06
3.41466e-06
3.45661e-06
3.49992e-06
3.54464e-06
3.59081e-06
3.63851e-06
3.68778e-06
3.73871e-06
3.79135e-06
3.84578e-06
3.90209e-06
3.96032e-06
4.0206e-06
4.08299e-06
4.14758e-06
4.21448e-06
4.28378e-06
4.35558e-06
4.43e-06
4.50714e-06
4.58714e-06
4.6701e-06
4.75616e-06
4.84547e-06
4.93816e-06
5.03437e-06
5.13428e-06
5.23802e-06
5.34579e-06
5.45775e-06
5.57409e-06
5.695e-06
5.82067e-06
5.95132e-06
6.08716e-06
6.22841e-06
6.37531e-06
6.52809e-06
6.687e-06
6.85231e-06
7.02427e-06
7.20314e-06
7.38921e-06
7.58279e-06
7.78414e-06
7.99356e-06
8.21137e-06
8.43788e-06
8.67338e-06
8.91821e-06
9.17267e-06
9.4371e-06
9.71175e-06
9.99701e-06
1.02931e-05
1.06003e-05
1.09191e-05
1.12496e-05
1.1592e-05
1.19467e-05
1.23137e-05
1.26935e-05
1.3086e-05
1.34913e-05
1.39097e-05
1.43411e-05
1.47855e-05
1.52429e-05
1.57133e-05
1.61963e-05
1.66919e-05
1.71997e-05
1.77195e-05
1.82508e-05
1.87931e-05
1.93459e-05
1.99086e-05
2.04805e-05
2.10608e-05
2.16487e-05
2.22432e-05
2.28435e-05
2.34484e-05
2.40569e-05
2.46678e-05
2.52797e-05
2.58914e-05
2.65014e-05
2.71084e-05
2.77106e-05
2.83064e-05
2.8894e-05
2.94715e-05
3.00368e-05
3.05875e-05
3.1121e-05
3.16344e-05
3.21241e-05
3.25861e-05
3.30143e-05
3.34023e-05
3.37427e-05
3.40246e-05
3.42335e-05
3.43484e-05
3.43389e-05
3.41602e-05
3.37425e-05
3.29761e-05
3.16894e-05
2.9287e-05
2.54107e-05
1.93513e-05
1.23348e-05
)
;

boundaryField
{
    top
    {
        type            calculated;
        value           uniform 1.27142e-05;
    }
    left
    {
        type            empty;
    }
    right
    {
        type            empty;
    }
    front
    {
        type            empty;
    }
    back
    {
        type            empty;
    }
    bottom
    {
        type            calculated;
        value           uniform 1.98726e-06;
    }
}


// ************************************************************************* //
