/*--------------------------------*- C++ -*----------------------------------*\
  =========                 |
  \\      /  F ield         | OpenFOAM: The Open Source CFD Toolbox
   \\    /   O peration     | Website:  https://openfoam.org
    \\  /    A nd           | Version:  7
     \\/     M anipulation  |
\*---------------------------------------------------------------------------*/
FoamFile
{
    version     2.0;
    format      ascii;
    class       volScalarField;
    location    "863976.670";
    object      tracer;
}
// * * * * * * * * * * * * * * * * * * * * * * * * * * * * * * * * * * * * * //

dimensions      [1 -3 0 0 0 0 0];

internalField   nonuniform List<scalar> 
200
(
0.000955459
0.000955431
0.000955456
0.000955448
0.000955442
0.000955436
0.00095543
0.000955423
0.000955417
0.00095541
0.000955403
0.000955396
0.00095539
0.000955383
0.000955376
0.00095537
0.000955363
0.000955356
0.00095535
0.000955343
0.000955337
0.00095533
0.000955324
0.000955317
0.000955311
0.000955304
0.000955298
0.000955292
0.000955285
0.000955279
0.000955273
0.000955266
0.00095526
0.000955254
0.000955248
0.000955242
0.000955236
0.00095523
0.000955224
0.000955218
0.000955212
0.000955206
0.0009552
0.000955194
0.000955188
0.000955182
0.000955177
0.000955171
0.000955165
0.000955159
0.000955154
0.000955148
0.000955142
0.000955137
0.000955131
0.000955126
0.00095512
0.000955115
0.000955109
0.000955104
0.000955098
0.000955093
0.000955088
0.000955082
0.000955077
0.000955072
0.000955066
0.000955061
0.000955056
0.000955051
0.000955046
0.00095504
0.000955035
0.00095503
0.000955025
0.00095502
0.000955015
0.00095501
0.000955005
0.000955
0.000954995
0.00095499
0.000954985
0.000954981
0.000954976
0.000954971
0.000954966
0.000954961
0.000954957
0.000954952
0.000954947
0.000954943
0.000954938
0.000954933
0.000954929
0.000954924
0.00095492
0.000954915
0.000954911
0.000954906
0.000954902
0.000954897
0.000954893
0.000954888
0.000954884
0.00095488
0.000954875
0.000954871
0.000954867
0.000954862
0.000954858
0.000954854
0.00095485
0.000954845
0.000954841
0.000954837
0.000954833
0.000954829
0.000954825
0.000954821
0.000954817
0.000954813
0.000954809
0.000954805
0.000954801
0.000954797
0.000954793
0.000954789
0.000954785
0.000954781
0.000954777
0.000954773
0.000954769
0.000954766
0.000954762
0.000954758
0.000954754
0.000954751
0.000954747
0.000954743
0.000954739
0.000954736
0.000954732
0.000954728
0.000954725
0.000954721
0.000954718
0.000954714
0.00095471
0.000954707
0.000954703
0.0009547
0.000954696
0.000954693
0.000954689
0.000954686
0.000954682
0.000954679
0.000954675
0.000954672
0.000954668
0.000954665
0.000954661
0.000954657
0.000954654
0.00095465
0.000954646
0.000954642
0.000954639
0.000954635
0.00095463
0.000954626
0.000954621
0.000954617
0.000954612
0.000954606
0.0009546
0.000954593
0.000954585
0.000954576
0.000954565
0.000954552
0.000954536
0.000954516
0.00095449
0.000954455
0.000954407
0.000954339
0.00095424
0.00095409
0.000953854
0.000953463
0.000952776
0.000951486
0.000948874
0.000943162
0.000930181
0.000905761
0.000857616
0.000980945
)
;

boundaryField
{
    top
    {
        type            uniformInletOutlet;
        uniformInletValue constant 0.001;
        value           uniform 0.001;
    }
    left
    {
        type            empty;
    }
    right
    {
        type            empty;
    }
    front
    {
        type            empty;
    }
    back
    {
        type            empty;
    }
    bottom
    {
        type            zeroGradient;
    }
}


// ************************************************************************* //
