/*--------------------------------*- C++ -*----------------------------------*\
  =========                 |
  \\      /  F ield         | OpenFOAM: The Open Source CFD Toolbox
   \\    /   O peration     | Website:  https://openfoam.org
    \\  /    A nd           | Version:  7
     \\/     M anipulation  |
\*---------------------------------------------------------------------------*/
FoamFile
{
    version     2.0;
    format      ascii;
    class       volVectorField;
    location    "863976.670";
    object      U;
}
// * * * * * * * * * * * * * * * * * * * * * * * * * * * * * * * * * * * * * //

dimensions      [0 1 -1 0 0 0 0];

internalField   nonuniform List<vector> 
200
(
(3.36816e-22 3.36816e-22 -1.21351e-05)
(3.36713e-22 3.36713e-22 -1.21314e-05)
(-3.3663e-22 -0 -1.21284e-05)
(-1.75613e-36 -3.36549e-22 -1.21255e-05)
(3.36467e-22 -3.36467e-22 -1.21225e-05)
(3.36384e-22 3.36384e-22 -1.21195e-05)
(-8.96089e-37 3.36302e-22 -1.21166e-05)
(-3.36226e-22 -0 -1.21138e-05)
(3.36144e-22 -0 -1.21109e-05)
(-3.36062e-22 -3.36062e-22 -1.21079e-05)
(-6.7196e-22 -3.3598e-22 -1.2105e-05)
(6.71794e-22 6.71794e-22 -1.2102e-05)
(6.71632e-22 6.71632e-22 -1.2099e-05)
(-1.00721e-21 -1.00721e-21 -1.20962e-05)
(-6.98548e-57 -6.98548e-57 -1.20933e-05)
(1.00672e-21 6.71144e-22 -1.20902e-05)
(-6.70988e-22 -6.70988e-22 -1.20874e-05)
(7.44769e-38 3.72385e-38 -1.20846e-05)
(3.35331e-22 3.35331e-22 -1.20816e-05)
(5.58305e-36 6.70502e-22 -1.20787e-05)
(3.35168e-22 -7.44221e-38 -1.20757e-05)
(-0 -6.70176e-22 -1.20728e-05)
(-1.00502e-21 -3.35006e-22 -1.20699e-05)
(-2.21617e-35 3.34924e-22 -1.20669e-05)
(1.33938e-21 6.69689e-22 -1.2064e-05)
(-6.69528e-22 -3.34764e-22 -1.20611e-05)
(-1.00404e-21 -6.69363e-22 -1.20582e-05)
(1.0038e-21 3.34601e-22 -1.20553e-05)
(-2.22835e-35 3.3452e-22 -1.20524e-05)
(-1.00331e-21 -6.68876e-22 -1.20494e-05)
(-0 -3.71211e-38 -1.20465e-05)
(-0 -3.74831e-36 -1.20435e-05)
(6.68383e-22 -3.74738e-36 -1.20405e-05)
(3.34112e-22 3.34112e-22 -1.20377e-05)
(-3.74559e-36 3.34033e-22 -1.20348e-05)
(-3.33948e-22 -3.70757e-38 -1.20317e-05)
(-6.6774e-22 -6.6774e-22 -1.20289e-05)
(1.00136e-21 3.33786e-22 -1.20259e-05)
(6.67414e-22 3.33707e-22 -1.20231e-05)
(-3.70396e-36 -3.70396e-36 -1.202e-05)
(-6.67083e-22 -1.02832e-57 -1.20171e-05)
(-6.66922e-22 -3.33461e-22 -1.20142e-05)
(-3.73826e-36 -0 -1.20112e-05)
(-0 -0 -1.20083e-05)
(6.66432e-22 -0 -1.20054e-05)
(-3.69856e-36 -3.33136e-22 -1.20025e-05)
(-3.73463e-36 -3.73463e-36 -1.19996e-05)
(-3.32974e-22 -3.69676e-38 -1.19967e-05)
(-1.48573e-35 -7.42863e-36 -1.19937e-05)
(-7.46383e-36 -3.32813e-22 -1.19909e-05)
(-6.65459e-22 -3.32729e-22 -1.19878e-05)
(6.65299e-22 9.97949e-22 -1.1985e-05)
(5.99315e-68 -3.32566e-22 -1.1982e-05)
(-1.48391e-35 -2.21479e-35 -1.1979e-05)
(1.47617e-35 3.32405e-22 -1.19762e-05)
(-6.64648e-22 -3.32324e-22 -1.19732e-05)
(6.64483e-22 3.32241e-22 -1.19703e-05)
(6.64316e-22 -0 -1.19673e-05)
(-0 3.32077e-22 -1.19643e-05)
(-0 3.31997e-22 -1.19615e-05)
(-0 -3.31915e-22 -1.19585e-05)
(-0 -3.31831e-22 -1.19555e-05)
(-0 3.31749e-22 -1.19525e-05)
(-6.63344e-22 -3.31672e-22 -1.19497e-05)
(-6.63171e-22 -9.94757e-22 -1.19466e-05)
(6.6301e-22 3.31505e-22 -1.19437e-05)
(1.46446e-35 3.31425e-22 -1.19408e-05)
(-6.62691e-22 2.55368e-58 -1.1938e-05)
(-0 -3.31263e-22 -1.1935e-05)
(-3.31179e-22 -3.31179e-22 -1.1932e-05)
(-1.46669e-35 3.31097e-22 -1.1929e-05)
(3.31016e-22 -0 -1.19261e-05)
(-0 -3.30934e-22 -1.19232e-05)
(-3.30855e-22 -1.67862e-69 -1.19203e-05)
(3.30773e-22 3.30773e-22 -1.19174e-05)
(9.92068e-22 6.61378e-22 -1.19143e-05)
(-3.30608e-22 -2.93639e-35 -1.19114e-05)
(-6.61054e-22 -3.30527e-22 -1.19085e-05)
(-0 -7.30064e-36 -1.19055e-05)
(-0 -3.30363e-22 -1.19026e-05)
(-0 -0 -1.18997e-05)
(3.30201e-22 3.30201e-22 -1.18968e-05)
(6.60234e-22 6.60234e-22 -1.18937e-05)
(2.93497e-35 2.93497e-35 -1.18908e-05)
(-6.5991e-22 -6.5991e-22 -1.18879e-05)
(-3.29874e-22 -3.29874e-22 -1.18849e-05)
(6.59584e-22 3.29792e-22 -1.1882e-05)
(1.47884e-35 7.39422e-36 -1.1879e-05)
(-3.29627e-22 -7.246e-36 -1.18761e-05)
(6.59091e-22 3.29545e-22 -1.18731e-05)
(-3.29466e-22 -3.29466e-22 -1.18703e-05)
(-4.37364e-35 3.29383e-22 -1.18673e-05)
(1.46238e-35 3.293e-22 -1.18643e-05)
(-6.58438e-22 -6.58438e-22 -1.18614e-05)
(-0 -2.18886e-35 -1.18585e-05)
(-0 3.65328e-38 -1.18556e-05)
(6.57951e-22 -1.4646e-35 -1.18526e-05)
(-1.46058e-35 -3.28893e-22 -1.18496e-05)
(-6.57622e-22 -3.28811e-22 -1.18467e-05)
(-0 3.2873e-22 -1.18438e-05)
(-3.28647e-22 -0 -1.18408e-05)
(6.57135e-22 6.57135e-22 -1.18379e-05)
(3.28485e-22 5.83507e-35 -1.18349e-05)
(-6.56807e-22 -6.56807e-22 -1.1832e-05)
(-3.2832e-22 -0 -1.1829e-05)
(3.28237e-22 3.28237e-22 -1.1826e-05)
(3.28155e-22 3.64325e-38 -1.1823e-05)
(-3.28076e-22 -3.28076e-22 -1.18202e-05)
(-3.27996e-22 -0 -1.18173e-05)
(6.55823e-22 3.27911e-22 -1.18142e-05)
(1.45585e-37 3.63962e-38 -1.18112e-05)
(-6.55494e-22 -3.27747e-22 -1.18083e-05)
(6.5533e-22 3.27665e-22 -1.18054e-05)
(-3.27584e-22 -1.45113e-35 -1.18025e-05)
(-3.27502e-22 -3.27502e-22 -1.17995e-05)
(1.4504e-35 -0 -1.17965e-05)
(3.27339e-22 3.27339e-22 -1.17936e-05)
(-1.00844e-57 -2.01688e-57 -1.17906e-05)
(2.89862e-35 1.44931e-35 -1.17877e-05)
(7.26291e-38 3.63146e-38 -1.17847e-05)
(-2.89718e-35 -1.44859e-35 -1.17818e-05)
(-2.89645e-35 -1.44822e-35 -1.17788e-05)
(-3.26846e-22 -3.26846e-22 -1.17759e-05)
(3.26765e-22 -0 -1.1773e-05)
(-0 -0 -1.177e-05)
(-3.26601e-22 -0 -1.1767e-05)
(3.2652e-22 3.2652e-22 -1.17641e-05)
(3.26438e-22 3.62419e-38 -1.17612e-05)
(-2.895e-35 -2.895e-35 -1.17582e-05)
(-1.44894e-35 -1.44894e-35 -1.17552e-05)
(-3.26194e-22 -3.26194e-22 -1.17524e-05)
(-3.26111e-22 -0 -1.17494e-05)
(3.26032e-22 3.26032e-22 -1.17465e-05)
(3.25948e-22 -1.4475e-35 -1.17435e-05)
(-3.25865e-22 1.88203e-58 -1.17405e-05)
(-3.25782e-22 -1.44315e-35 -1.17375e-05)
(2.8928e-35 -3.257e-22 -1.17346e-05)
(6.5124e-22 3.2562e-22 -1.17317e-05)
(-4.33703e-35 3.25537e-22 -1.17287e-05)
(-2.89062e-35 -0 -1.17257e-05)
(-1.44496e-35 -3.25376e-22 -1.17229e-05)
(-3.25293e-22 -3.25293e-22 -1.17199e-05)
(-0 -0 -1.1717e-05)
(3.2513e-22 3.2513e-22 -1.17141e-05)
(-3.2505e-22 3.60877e-38 -1.17111e-05)
(-3.24968e-22 -2.88269e-35 -1.17082e-05)
(6.49765e-22 3.24882e-22 -1.17051e-05)
(3.24802e-22 -0 -1.17022e-05)
(-6.49444e-22 -3.24722e-22 -1.16993e-05)
(3.4973e-57 6.9946e-57 -1.16964e-05)
(3.24555e-22 3.60329e-38 -1.16933e-05)
(-3.24474e-22 4.99282e-58 -1.16904e-05)
(-3.24392e-22 1.44059e-35 -1.16875e-05)
(3.24312e-22 -1.44024e-35 -1.16846e-05)
(9.72698e-22 6.48465e-22 -1.16817e-05)
(1.43951e-35 1.43951e-35 -1.16787e-05)
(-6.48137e-22 -6.48137e-22 -1.16758e-05)
(-3.23987e-22 -3.23987e-22 -1.16729e-05)
(-3.23905e-22 -0 -1.16699e-05)
(-2.87611e-35 -0 -1.16669e-05)
(3.23742e-22 -0 -1.1664e-05)
(-0 3.23662e-22 -1.16612e-05)
(3.23581e-22 3.23581e-22 -1.16582e-05)
(3.59157e-38 -0 -1.16553e-05)
(-1.43626e-35 -0 -1.16523e-05)
(-1.36554e-57 -3.23334e-22 -1.16493e-05)
(-3.23256e-22 -3.23256e-22 -1.16465e-05)
(-0 -0 -1.16436e-05)
(6.46182e-22 6.46182e-22 -1.16406e-05)
(-3.23012e-22 -2.85458e-35 -1.16377e-05)
(-3.22933e-22 -3.22933e-22 -1.16349e-05)
(9.68555e-22 6.45703e-22 -1.1632e-05)
(1.43341e-35 -3.22774e-22 -1.16292e-05)
(-6.45382e-22 -6.45382e-22 -1.16262e-05)
(-3.2261e-22 -0 -1.16233e-05)
(-3.2253e-22 -0 -1.16204e-05)
(1.4284e-35 -0 -1.16176e-05)
(3.22376e-22 -0 -1.16148e-05)
(-0 -0 -1.16119e-05)
(6.44437e-22 3.22218e-22 -1.16091e-05)
(6.44282e-22 6.44282e-22 -1.16064e-05)
(-9.66188e-22 -3.22063e-22 -1.16035e-05)
(-6.43976e-22 -3.21988e-22 -1.16008e-05)
(-1.42601e-35 -1.42601e-35 -1.15982e-05)
(6.43694e-22 3.21847e-22 -1.15958e-05)
(3.21779e-22 -7.14492e-38 -1.15933e-05)
(-6.4343e-22 -6.4343e-22 -1.1591e-05)
(-0 -0 -1.15891e-05)
(3.21613e-22 3.21613e-22 -1.15873e-05)
(3.57035e-38 3.21588e-22 -1.15864e-05)
(-6.43183e-22 -3.21591e-22 -1.15866e-05)
(3.21651e-22 -5.71009e-35 -1.15887e-05)
(3.21807e-22 -3.21807e-22 -1.15943e-05)
(-3.22172e-22 -3.22172e-22 -1.16075e-05)
(-3.2299e-22 3.2299e-22 -1.16369e-05)
(5.26895e-55 3.24872e-22 -1.17048e-05)
(6.58641e-22 3.2932e-22 -1.1865e-05)
(3.38073e-22 -0 -1.21804e-05)
(-7.52296e-22 -3.76148e-22 -1.35522e-05)
(-5.02522e-22 -2.51261e-22 -9.05263e-06)
)
;

boundaryField
{
    top
    {
        type            calculated;
        value           uniform (-5.02522e-22 -2.51261e-22 -1.10294e-05);
    }
    left
    {
        type            empty;
    }
    right
    {
        type            empty;
    }
    front
    {
        type            empty;
    }
    back
    {
        type            empty;
    }
    bottom
    {
        type            calculated;
        value           uniform (3.36816e-22 3.36816e-22 -1.21359e-05);
    }
}


// ************************************************************************* //
