/*--------------------------------*- C++ -*----------------------------------*\
  =========                 |
  \\      /  F ield         | OpenFOAM: The Open Source CFD Toolbox
   \\    /   O peration     | Website:  https://openfoam.org
    \\  /    A nd           | Version:  7
     \\/     M anipulation  |
\*---------------------------------------------------------------------------*/
FoamFile
{
    version     2.0;
    format      ascii;
    class       volScalarField;
    location    "863976.670";
    object      XAR;
}
// * * * * * * * * * * * * * * * * * * * * * * * * * * * * * * * * * * * * * //

dimensions      [1 -3 0 0 0 0 0];

internalField   nonuniform List<scalar> 
200
(
0.00117378
0.0011806
0.00118875
0.00119695
0.00120517
0.00121346
0.00122185
0.00123033
0.00123891
0.00124759
0.00125636
0.00126525
0.00127424
0.00128334
0.00129254
0.00130186
0.00131129
0.00132084
0.0013305
0.00134028
0.00135018
0.00136021
0.00137037
0.00138065
0.00139106
0.00140161
0.00141229
0.00142312
0.00143408
0.00144518
0.00145644
0.00146784
0.00147939
0.00149111
0.00150297
0.001515
0.0015272
0.00153956
0.0015521
0.00156481
0.0015777
0.00159077
0.00160403
0.00161748
0.00163112
0.00164497
0.00165901
0.00167326
0.00168773
0.00170241
0.0017173
0.00173243
0.00174779
0.00176338
0.00177921
0.00179529
0.00181162
0.00182821
0.00184506
0.00186218
0.00187958
0.00189726
0.00191523
0.0019335
0.00195207
0.00197095
0.00199015
0.00200967
0.00202953
0.00204973
0.00207029
0.0020912
0.00211248
0.00213414
0.00215618
0.00217863
0.00220149
0.00222476
0.00224847
0.00227262
0.00229722
0.00232229
0.00234784
0.00237388
0.00240044
0.00242751
0.00245512
0.00248329
0.00251202
0.00254134
0.00257126
0.0026018
0.00263299
0.00266483
0.00269735
0.00273058
0.00276453
0.00279923
0.00283469
0.00287095
0.00290804
0.00294597
0.00298478
0.0030245
0.00306515
0.00310678
0.00314941
0.00319308
0.00323782
0.00328368
0.00333069
0.00337891
0.00342836
0.0034791
0.00353118
0.00358466
0.00363957
0.00369599
0.00375396
0.00381357
0.00387486
0.00393791
0.00400279
0.00406959
0.00413838
0.00420926
0.0042823
0.00435762
0.00443531
0.00451549
0.00459826
0.00468376
0.00477212
0.00486347
0.00495797
0.00505578
0.00515706
0.005262
0.00537079
0.00548364
0.00560077
0.00572243
0.00584887
0.00598037
0.00611722
0.00625976
0.00640832
0.0065633
0.00672508
0.00689413
0.00707093
0.007256
0.00744991
0.0076533
0.00786685
0.00809133
0.00832755
0.00857644
0.00883902
0.00911639
0.00940982
0.00972067
0.0100505
0.0104011
0.0107743
0.0111723
0.0115977
0.0120533
0.0125421
0.013068
0.0136351
0.0142483
0.0149131
0.0156363
0.0164254
0.0172895
0.0182396
0.0192884
0.0204516
0.0217481
0.0232012
0.0248399
0.0267003
0.0288286
0.0312841
0.0341449
0.0375145
0.0415345
0.0464017
0.0523985
0.0599425
0.0696762
0.0826286
0.100545
0.126563
0.166708
0.233161
0.349891
0.547824
0.846628
)
;

boundaryField
{
    top
    {
        type            zeroGradient;
    }
    left
    {
        type            empty;
    }
    right
    {
        type            empty;
    }
    front
    {
        type            empty;
    }
    back
    {
        type            empty;
    }
    bottom
    {
        type            zeroGradient;
    }
}


// ************************************************************************* //
