/*--------------------------------*- C++ -*----------------------------------*\
  =========                 |
  \\      /  F ield         | OpenFOAM: The Open Source CFD Toolbox
   \\    /   O peration     | Website:  https://openfoam.org
    \\  /    A nd           | Version:  7
     \\/     M anipulation  |
\*---------------------------------------------------------------------------*/
FoamFile
{
    version     2.0;
    format      ascii;
    class       volScalarField;
    location    "863976.670";
    object      XDN;
}
// * * * * * * * * * * * * * * * * * * * * * * * * * * * * * * * * * * * * * //

dimensions      [1 -3 0 0 0 0 0];

internalField   nonuniform List<scalar> 
200
(
0.000147828
0.000147778
0.000147726
0.000147673
0.00014762
0.000147568
0.000147515
0.000147462
0.000147409
0.000147356
0.000147303
0.00014725
0.000147197
0.000147144
0.00014709
0.000147037
0.000146983
0.00014693
0.000146876
0.000146822
0.000146768
0.000146714
0.00014666
0.000146606
0.000146552
0.000146497
0.000146443
0.000146388
0.000146334
0.000146279
0.000146224
0.000146169
0.000146114
0.000146059
0.000146004
0.000145949
0.000145894
0.000145838
0.000145783
0.000145727
0.000145672
0.000145616
0.00014556
0.000145505
0.000145449
0.000145393
0.000145337
0.00014528
0.000145224
0.000145168
0.000145111
0.000145055
0.000144999
0.000144942
0.000144885
0.000144829
0.000144772
0.000144715
0.000144658
0.000144601
0.000144544
0.000144487
0.00014443
0.000144373
0.000144315
0.000144258
0.000144201
0.000144144
0.000144086
0.000144029
0.000143971
0.000143914
0.000143856
0.000143799
0.000143741
0.000143684
0.000143626
0.000143568
0.000143511
0.000143453
0.000143396
0.000143338
0.000143281
0.000143223
0.000143166
0.000143108
0.000143051
0.000142993
0.000142936
0.000142879
0.000142822
0.000142765
0.000142708
0.000142651
0.000142594
0.000142537
0.000142481
0.000142424
0.000142368
0.000142312
0.000142256
0.0001422
0.000142145
0.00014209
0.000142035
0.00014198
0.000141925
0.000141871
0.000141817
0.000141763
0.00014171
0.000141657
0.000141604
0.000141552
0.000141501
0.000141449
0.000141398
0.000141348
0.000141298
0.000141249
0.000141201
0.000141153
0.000141105
0.000141059
0.000141013
0.000140968
0.000140924
0.00014088
0.000140838
0.000140797
0.000140756
0.000140717
0.000140679
0.000140642
0.000140606
0.000140572
0.000140539
0.000140508
0.000140478
0.00014045
0.000140424
0.000140399
0.000140377
0.000140357
0.000140338
0.000140323
0.000140309
0.000140298
0.00014029
0.000140285
0.000140283
0.000140285
0.000140289
0.000140298
0.00014031
0.000140327
0.000140348
0.000140373
0.000140404
0.00014044
0.000140481
0.000140529
0.000140583
0.000140644
0.000140712
0.000140788
0.000140872
0.000140966
0.000141069
0.000141182
0.000141307
0.000141444
0.000141594
0.000141758
0.000141937
0.000142134
0.000142348
0.000142583
0.00014284
0.000143122
0.00014343
0.000143769
0.000144141
0.000144552
0.000145005
0.000145508
0.000146067
0.000146693
0.000147395
0.00014819
0.000149095
0.000150137
0.000151346
0.000152763
0.000154432
0.000156367
0.000158432
0.000159971
0.000159387
0.000153796
)
;

boundaryField
{
    top
    {
        type            zeroGradient;
    }
    left
    {
        type            empty;
    }
    right
    {
        type            empty;
    }
    front
    {
        type            empty;
    }
    back
    {
        type            empty;
    }
    bottom
    {
        type            zeroGradient;
    }
}


// ************************************************************************* //
