/*--------------------------------*- C++ -*----------------------------------*\
  =========                 |
  \\      /  F ield         | OpenFOAM: The Open Source CFD Toolbox
   \\    /   O peration     | Website:  https://openfoam.org
    \\  /    A nd           | Version:  7
     \\/     M anipulation  |
\*---------------------------------------------------------------------------*/
FoamFile
{
    version     2.0;
    format      ascii;
    class       volScalarField;
    location    "863976.670";
    object      XI;
}
// * * * * * * * * * * * * * * * * * * * * * * * * * * * * * * * * * * * * * //

dimensions      [1 -3 0 0 0 0 0];

internalField   nonuniform List<scalar> 
200
(
0.00120379
0.00121078
0.00121726
0.00122361
0.00122997
0.0012364
0.00124288
0.00124944
0.00125605
0.00126273
0.00126948
0.0012763
0.00128318
0.00129014
0.00129717
0.00130427
0.00131144
0.00131869
0.00132602
0.00133342
0.0013409
0.00134847
0.00135611
0.00136384
0.00137164
0.00137954
0.00138752
0.00139559
0.00140375
0.00141201
0.00142035
0.0014288
0.00143733
0.00144597
0.0014547
0.00146354
0.00147248
0.00148153
0.00149068
0.00149994
0.00150932
0.00151881
0.00152841
0.00153813
0.00154797
0.00155794
0.00156803
0.00157825
0.00158859
0.00159907
0.00160968
0.00162044
0.00163132
0.00164236
0.00165354
0.00166487
0.00167635
0.00168799
0.00169978
0.00171174
0.00172386
0.00173615
0.00174861
0.00176125
0.00177407
0.00178707
0.00180026
0.00181365
0.00182722
0.001841
0.00185498
0.00186918
0.00188359
0.00189822
0.00191307
0.00192816
0.00194348
0.00195904
0.00197485
0.00199092
0.00200724
0.00202383
0.00204069
0.00205783
0.00207526
0.00209299
0.00211101
0.00212935
0.002148
0.00216698
0.0021863
0.00220596
0.00222597
0.00224636
0.00226711
0.00228825
0.00230978
0.00233173
0.00235408
0.00237688
0.00240012
0.00242381
0.00244798
0.00247263
0.00249779
0.00252346
0.00254966
0.00257642
0.00260374
0.00263165
0.00266016
0.00268931
0.00271909
0.00274956
0.0027807
0.00281257
0.00284518
0.00287856
0.00291274
0.00294774
0.0029836
0.00302035
0.00305802
0.00309665
0.00313627
0.00317694
0.00321867
0.00326154
0.00330556
0.0033508
0.00339731
0.00344515
0.00349436
0.00354502
0.00359718
0.00365092
0.00370631
0.00376343
0.00382236
0.00388319
0.00394601
0.00401092
0.00407804
0.00414748
0.00421935
0.0042938
0.00437096
0.00445099
0.00453405
0.00462032
0.00470999
0.00480327
0.00490037
0.00500156
0.00510709
0.00521724
0.00533234
0.00545273
0.00557877
0.00571089
0.00584954
0.00599523
0.00614849
0.00630995
0.00648029
0.00666026
0.00685072
0.00705262
0.00726703
0.00749515
0.00773836
0.00799821
0.0082765
0.00857526
0.00889685
0.00924404
0.00962
0.0100285
0.010474
0.0109618
0.0114981
0.0120909
0.0127493
0.0134852
0.0143129
0.015251
0.0163232
0.0175604
0.019004
0.02071
0.0227569
0.0252572
0.0283773
0.0323738
0.0376575
0.0449127
0.055305
0.0707176
0.0932316
0.124934
)
;

boundaryField
{
    top
    {
        type            zeroGradient;
    }
    left
    {
        type            empty;
    }
    right
    {
        type            empty;
    }
    front
    {
        type            empty;
    }
    back
    {
        type            empty;
    }
    bottom
    {
        type            zeroGradient;
    }
}


// ************************************************************************* //
