/*--------------------------------*- C++ -*----------------------------------*\
  =========                 |
  \\      /  F ield         | OpenFOAM: The Open Source CFD Toolbox
   \\    /   O peration     | Website:  https://openfoam.org
    \\  /    A nd           | Version:  7
     \\/     M anipulation  |
\*---------------------------------------------------------------------------*/
FoamFile
{
    version     2.0;
    format      ascii;
    class       volScalarField;
    location    "863976.670";
    object      XN;
}
// * * * * * * * * * * * * * * * * * * * * * * * * * * * * * * * * * * * * * //

dimensions      [1 -3 0 0 0 0 0];

internalField   nonuniform List<scalar> 
200
(
0.00026303
0.000264203
0.000265448
0.000266681
0.000267914
0.000269158
0.00027041
0.000271675
0.00027295
0.000274237
0.000275535
0.000276845
0.000278167
0.000279501
0.000280846
0.000282205
0.000283575
0.00028496
0.000286355
0.000287765
0.000289187
0.000290624
0.000292073
0.000293537
0.000295014
0.000296506
0.000298011
0.000299533
0.000301067
0.000302618
0.000304184
0.000305765
0.000307362
0.000308975
0.000310603
0.000312249
0.000313911
0.00031559
0.000317286
0.000319
0.00032073
0.00032248
0.000324247
0.000326034
0.000327838
0.000329662
0.000331505
0.000333368
0.000335251
0.000337155
0.000339078
0.000341024
0.000342989
0.000344978
0.000346987
0.00034902
0.000351074
0.000353153
0.000355253
0.000357379
0.000359528
0.000361703
0.000363902
0.000366127
0.000368377
0.000370654
0.000372957
0.000375288
0.000377646
0.000380033
0.000382448
0.000384893
0.000387367
0.000389872
0.000392406
0.000394973
0.000397571
0.000400202
0.000402866
0.000405564
0.000408296
0.000411063
0.000413865
0.000416705
0.000419581
0.000422495
0.000425447
0.00042844
0.000431472
0.000434545
0.00043766
0.000440818
0.000444019
0.000447265
0.000450556
0.000453893
0.000457278
0.000460711
0.000464194
0.000467727
0.000471311
0.000474949
0.00047864
0.000482386
0.000486188
0.000490048
0.000493966
0.000497945
0.000501984
0.000506087
0.000510253
0.000514486
0.000518785
0.000523153
0.00052759
0.0005321
0.000536683
0.000541341
0.000546076
0.00055089
0.000555784
0.000560761
0.000565821
0.000570967
0.000576201
0.000581526
0.000586942
0.000592452
0.000598058
0.000603763
0.000609568
0.000615476
0.000621489
0.00062761
0.00063384
0.000640182
0.000646639
0.000653212
0.000659904
0.000666718
0.000673655
0.000680718
0.00068791
0.000695232
0.000702687
0.000710277
0.000718004
0.000725871
0.000733879
0.00074203
0.000750325
0.000758768
0.000767358
0.000776098
0.000784988
0.00079403
0.000803225
0.000812572
0.000822073
0.000831727
0.000841535
0.000851495
0.000861606
0.000871868
0.000882279
0.000892835
0.000903535
0.000914375
0.000925352
0.000936459
0.000947693
0.000959046
0.000970511
0.000982079
0.000993739
0.00100548
0.00101729
0.00102915
0.00104104
0.00105294
0.00106481
0.00107664
0.00108836
0.00109994
0.00111131
0.00112238
0.00113305
0.00114319
0.00115262
0.00116109
0.00116825
0.00117363
0.00117652
0.00117589
0.00117018
0.00115643
0.00113029
0.00108725
0.00102459
0.000967116
)
;

boundaryField
{
    top
    {
        type            zeroGradient;
    }
    left
    {
        type            empty;
    }
    right
    {
        type            empty;
    }
    front
    {
        type            empty;
    }
    back
    {
        type            empty;
    }
    bottom
    {
        type            zeroGradient;
    }
}


// ************************************************************************* //
