/*--------------------------------*- C++ -*----------------------------------*\
  =========                 |
  \\      /  F ield         | OpenFOAM: The Open Source CFD Toolbox
   \\    /   O peration     | Website:  https://openfoam.org
    \\  /    A nd           | Version:  7
     \\/     M anipulation  |
\*---------------------------------------------------------------------------*/
FoamFile
{
    version     2.0;
    format      ascii;
    class       volVectorField;
    location    "0.000";
    object      U;
}
// * * * * * * * * * * * * * * * * * * * * * * * * * * * * * * * * * * * * * //

dimensions      [0 1 -1 0 0 0 0];

internalField   nonuniform List<vector> 
413
(
(7.55575e-23 7.55575e-23 -9.40697e-06)
(7.53037e-23 7.53037e-23 -9.40697e-06)
(7.60677e-23 -7.60677e-23 -9.40697e-06)
(-7.6836e-23 -7.58122e-23 -9.40697e-06)
(-7.55541e-23 -0 -9.40697e-06)
(-7.73548e-23 -7.68395e-23 -9.40697e-06)
(1.0342e-24 -7.65814e-23 -9.40697e-06)
(1.53679e-22 7.73583e-23 -9.40697e-06)
(-2.32857e-22 -5.2059e-25 -9.40697e-06)
(-1.54194e-22 -7.73583e-23 -9.40697e-06)
(7.7619e-23 -0 -9.40697e-06)
(7.84065e-23 7.84065e-23 -9.40697e-06)
(7.81432e-23 7.81432e-23 -9.40697e-06)
(-0 -0 -9.40697e-06)
(-7.9202e-23 -7.9202e-23 -9.40697e-06)
(5.32998e-25 5.32998e-25 -9.40697e-06)
(-5.34794e-25 -5.34794e-25 -9.40697e-06)
(8.05421e-23 5.36597e-25 -9.40697e-06)
(7.91984e-23 -5.38405e-25 -9.40697e-06)
(-8.00055e-23 5.40219e-25 -9.40697e-06)
(8.08172e-23 8.02752e-23 -9.40697e-06)
(-8.16335e-23 -0 -9.40697e-06)
(-1.61634e-22 8.13629e-23 -9.40697e-06)
(-0 8.10896e-23 -9.40697e-06)
(-0 -1.63825e-22 -9.40697e-06)
(1.64377e-22 1.65479e-22 -9.40697e-06)
(1.63825e-22 1.62718e-22 -9.40697e-06)
(-8.27434e-23 -3.29864e-22 -9.40697e-06)
(-8.24654e-23 -8.19086e-23 -9.40697e-06)
(-1.66604e-22 -5.58706e-25 -9.40697e-06)
(8.4704e-23 5.60589e-25 -9.40697e-06)
(8.21771e-23 -5.62479e-25 -9.40697e-06)
(-8.30185e-23 5.64375e-25 -9.40697e-06)
(8.38646e-23 8.38646e-23 -9.40697e-06)
(8.47154e-23 -0 -9.40697e-06)
(8.44308e-23 8.50009e-23 -9.40697e-06)
(-8.52874e-23 -8.58594e-23 -9.40697e-06)
(-8.50009e-23 1.1479e-24 -9.40697e-06)
(-0 -1.15177e-24 -9.40697e-06)
(-8.61527e-23 -1.7115e-22 -9.40697e-06)
(5.79772e-25 -0 -9.40697e-06)
(8.61527e-23 -0 -9.40697e-06)
(-0 8.70268e-23 -9.40697e-06)
(-8.73201e-23 -5.85657e-25 -9.40697e-06)
(-8.70268e-23 -8.70268e-23 -9.40697e-06)
(-0 -0 -9.40697e-06)
(8.8206e-23 8.8206e-23 -9.40697e-06)
(8.79097e-23 8.79097e-23 -9.40697e-06)
(-0 -0 -9.40697e-06)
(-8.91009e-23 -8.91009e-23 -9.40697e-06)
(5.99611e-25 5.99611e-25 -9.40697e-06)
(-6.01635e-25 -6.01635e-25 -9.40697e-06)
(6.03664e-25 6.03664e-25 -9.40697e-06)
(8.97025e-23 8.97025e-23 -9.40697e-06)
(-0 9.06126e-23 -9.40697e-06)
(-0 -6.09784e-25 -9.40697e-06)
(9.12244e-23 -1.81837e-22 -9.40697e-06)
(-6.13907e-25 -9.0918e-23 -9.40697e-06)
(-9.12244e-23 1.83681e-22 -9.40697e-06)
(-0 -1.2361e-24 -9.40697e-06)
(9.24605e-23 -9.12203e-23 -9.40697e-06)
(-6.22217e-25 9.215e-23 -9.40697e-06)
(-9.24605e-23 -0 -9.40697e-06)
(-0 -0 -9.40697e-06)
(-0 -0 -9.40697e-06)
(-9.40293e-23 -9.40293e-23 -9.40697e-06)
(6.32779e-25 6.32779e-25 -9.40697e-06)
(9.40293e-23 9.40293e-23 -9.40697e-06)
(-0 -0 -9.40697e-06)
(-9.53034e-23 -0 -9.40697e-06)
(6.41352e-25 -0 -9.40697e-06)
(9.53034e-23 -0 -9.40697e-06)
(-0 -0 -9.40697e-06)
(9.65947e-23 -0 -9.40697e-06)
(-9.75704e-23 -0 -9.40697e-06)
(-1.93189e-22 -9.7247e-23 -9.40697e-06)
(1.95149e-22 9.82292e-23 -9.40697e-06)
(1.94494e-22 9.65903e-23 -9.40697e-06)
(-0 -1.95808e-22 -9.40697e-06)
(-9.85647e-23 -9.79036e-23 -9.40697e-06)
(-9.82336e-23 9.88969e-23 -9.40697e-06)
(-9.92302e-23 9.85647e-23 -9.40697e-06)
(6.67781e-25 -9.95647e-23 -9.40697e-06)
(9.92302e-23 -9.92302e-23 -9.40697e-06)
(-0 1.00237e-22 -9.40697e-06)
(-0 9.99003e-23 -9.40697e-06)
(-0 -0 -9.40697e-06)
(-1.01254e-22 -1.01254e-22 -9.40697e-06)
(6.81401e-25 -1.00914e-22 -9.40697e-06)
(1.01254e-22 1.01938e-22 -9.40697e-06)
(1.02281e-22 2.03876e-22 -9.40697e-06)
(-1.03314e-22 -1.03314e-22 -9.40697e-06)
(-1.01591e-22 -2.04562e-22 -9.40697e-06)
(-6.92957e-25 -0 -9.40697e-06)
(6.95295e-25 1.03667e-22 -9.40697e-06)
(1.03319e-22 1.03319e-22 -9.40697e-06)
(1.04367e-22 -0 -9.40697e-06)
(-7.02346e-25 -0 -9.40697e-06)
(-2.09439e-22 -0 -9.40697e-06)
(1.06133e-22 1.05426e-22 -9.40697e-06)
(-1.41894e-24 -7.0947e-25 -9.40697e-06)
(-1.04714e-22 -1.05426e-22 -9.40697e-06)
(2.12277e-22 1.06496e-22 -9.40697e-06)
(-1.07571e-22 -7.16669e-25 -9.40697e-06)
(-2.12991e-22 -2.1371e-22 -9.40697e-06)
(-0 -1.06855e-22 -9.40697e-06)
(-0 -0 -9.40697e-06)
(3.24907e-22 1.08302e-22 -9.40697e-06)
(2.15148e-22 2.16606e-22 -9.40697e-06)
(-1.08302e-22 1.08302e-22 -9.40697e-06)
(-1.09401e-22 -1.09401e-22 -9.40697e-06)
(7.36226e-25 -1.09034e-22 -9.40697e-06)
(-1.10879e-22 -1.1014e-22 -9.40697e-06)
(-1.09029e-22 1.11252e-22 -9.40697e-06)
(1.1014e-22 1.09396e-22 -9.40697e-06)
(1.11257e-22 -2.21768e-22 -9.40697e-06)
(-7.48714e-25 -1.10884e-22 -9.40697e-06)
(-2.23266e-22 -0 -9.40697e-06)
(7.53772e-25 2.24772e-22 -9.40697e-06)
(2.24773e-22 2.24017e-22 -9.40697e-06)
(-7.58866e-25 -2.2629e-22 -9.40697e-06)
(-1.12765e-22 -2.2553e-22 -9.40697e-06)
(-0 1.13909e-22 -9.40697e-06)
(1.14293e-22 1.13526e-22 -9.40697e-06)
(-1.15447e-22 -1.14678e-22 -9.40697e-06)
(-2.28586e-22 -1.14293e-22 -9.40697e-06)
(1.15452e-22 1.15452e-22 -9.40697e-06)
(-7.7695e-25 2.30906e-22 -9.40697e-06)
(2.33243e-22 2.31684e-22 -9.40697e-06)
(-2.34658e-24 -2.3403e-22 -9.40697e-06)
(-2.31679e-22 -3.48696e-22 -9.40697e-06)
(-7.87476e-25 -0 -9.40697e-06)
(7.90127e-25 1.17807e-22 -9.40697e-06)
(-7.92791e-25 -7.92791e-25 -9.40697e-06)
(7.95469e-25 7.95469e-25 -9.40697e-06)
(2.37206e-22 2.37206e-22 -9.40697e-06)
(1.18602e-22 1.18602e-22 -9.40697e-06)
(-1.19806e-22 -1.19806e-22 -9.40697e-06)
(-2.39613e-22 -2.39613e-22 -9.40697e-06)
(8.08958e-25 8.08958e-25 -9.40697e-06)
(-8.1169e-25 1.20209e-22 -9.40697e-06)
(8.14422e-25 -0 -9.40697e-06)
(2.42859e-22 1.21838e-22 -9.40697e-06)
(-8.19928e-25 1.21429e-22 -9.40697e-06)
(1.23484e-22 -0 -9.40697e-06)
(1.21424e-22 -1.23074e-22 -9.40697e-06)
(-3.6964e-22 -2.4615e-22 -9.40697e-06)
(-1.22243e-22 8.31034e-25 -9.40697e-06)
(-8.33838e-25 -8.33838e-25 -9.40697e-06)
(8.36641e-25 -1.23905e-22 -9.40697e-06)
(-8.39467e-25 -1.25163e-22 -9.40697e-06)
(-1.24742e-22 1.26427e-22 -9.40697e-06)
(-0 1.24317e-22 -9.40697e-06)
(-0 -1.25584e-22 -9.40697e-06)
(1.26859e-22 1.26859e-22 -9.40697e-06)
(-8.53709e-25 -8.53709e-25 -9.40697e-06)
(8.56581e-25 -1.26859e-22 -9.40697e-06)
(-8.59467e-25 1.28146e-22 -9.40697e-06)
(-1.27715e-22 -8.6237e-25 -9.40697e-06)
(-0 -1.28146e-22 -9.40697e-06)
(3.88337e-22 2.58891e-22 -9.40697e-06)
(2.57151e-22 2.58022e-22 -9.40697e-06)
(-3.90085e-22 -3.90959e-22 -9.40697e-06)
(1.754e-24 2.631e-24 -9.40697e-06)
(1.2944e-22 2.5976e-22 -9.40697e-06)
(-1.30759e-22 -2.62401e-22 -9.40697e-06)
(-0 8.85893e-25 -9.40697e-06)
(-1.32531e-22 -8.88885e-25 -9.40697e-06)
(8.91876e-25 8.91876e-25 -9.40697e-06)
(1.32531e-22 2.65956e-22 -9.40697e-06)
(-1.33875e-22 -1.34773e-22 -9.40697e-06)
(1.35228e-22 1.80185e-24 -9.40697e-06)
(1.32971e-22 1.32971e-22 -9.40697e-06)
(9.07012e-25 -1.34327e-22 -9.40697e-06)
(-1.36599e-22 -0 -9.40697e-06)
(-2.70467e-22 -0 -9.40697e-06)
(1.36606e-22 -1.36606e-22 -9.40697e-06)
(-9.19296e-25 9.19296e-25 -9.40697e-06)
(-1.36606e-22 1.36606e-22 -9.40697e-06)
(-0 -0 -9.40697e-06)
(1.38457e-22 1.38457e-22 -9.40697e-06)
(-9.31758e-25 -9.31758e-25 -9.40697e-06)
(1.40326e-22 9.34908e-25 -9.40697e-06)
(1.37985e-22 -9.38049e-25 -9.40697e-06)
(-1.39392e-22 -1.39392e-22 -9.40697e-06)
(-1.40806e-22 -1.40806e-22 -9.40697e-06)
(1.42228e-22 1.42228e-22 -9.40697e-06)
(1.39855e-22 -1.90152e-24 -9.40697e-06)
(-2.83515e-22 -2.82561e-22 -9.40697e-06)
(9.57184e-25 1.42714e-22 -9.40697e-06)
(-9.604e-25 -9.604e-25 -9.40697e-06)
(-1.42714e-22 -1.42714e-22 -9.40697e-06)
(1.44162e-22 1.44162e-22 -9.40697e-06)
(-9.70146e-25 -9.70146e-25 -9.40697e-06)
(-1.44162e-22 -1.44162e-22 -9.40697e-06)
(-0 -0 -9.40697e-06)
(-0 1.46115e-22 -9.40697e-06)
(1.46607e-22 1.45624e-22 -9.40697e-06)
(1.46115e-22 -0 -9.40697e-06)
(-0 -0 -9.40697e-06)
(-0 1.48095e-22 -9.40697e-06)
(2.97188e-22 1.47597e-22 -9.40697e-06)
(-1.99996e-24 -1.49095e-22 -9.40697e-06)
(-4.46785e-22 -2.98191e-22 -9.40697e-06)
(1.00673e-24 1.00673e-24 -9.40697e-06)
(-1.01013e-24 -1.51618e-22 -9.40697e-06)
(-1.50102e-22 -1.49088e-22 -9.40697e-06)
(-0 3.02232e-22 -9.40697e-06)
(-0 -1.02037e-24 -9.40697e-06)
(1.52648e-22 1.02381e-24 -9.40697e-06)
(3.05298e-22 3.05298e-22 -9.40697e-06)
(-1.5471e-22 -1.5471e-22 -9.40697e-06)
(-3.06325e-22 -1.52129e-22 -9.40697e-06)
(1.54717e-22 1.53679e-22 -9.40697e-06)
(1.54197e-22 -0 -9.40697e-06)
(-1.55761e-22 -1.55761e-22 -9.40697e-06)
(1.04821e-24 -1.55238e-22 -9.40697e-06)
(-1.57865e-22 -0 -9.40697e-06)
(2.11058e-24 1.57342e-22 -9.40697e-06)
(3.13626e-22 1.56813e-22 -9.40697e-06)
(-0 -0 -9.40697e-06)
(-0 -0 -9.40697e-06)
(-0 -1.59474e-22 -9.40697e-06)
(-0 1.07319e-24 -9.40697e-06)
(-0 3.20024e-22 -9.40697e-06)
(-1.61092e-22 -1.62172e-22 -9.40697e-06)
(-1.6055e-22 -3.21101e-22 -9.40697e-06)
(1.62179e-22 1.62179e-22 -9.40697e-06)
(-1.63817e-22 -1.09139e-24 -9.40697e-06)
(2.19017e-24 3.27644e-22 -9.40697e-06)
(3.25452e-22 1.60528e-22 -9.40697e-06)
(-1.64377e-22 -4.90926e-22 -9.40697e-06)
(-1.63825e-22 1.10619e-24 -9.40697e-06)
(1.65487e-22 3.29864e-22 -9.40697e-06)
(1.64931e-22 -1.11365e-24 -9.40697e-06)
(-1.66604e-22 -1.65487e-22 -9.40697e-06)
(1.12118e-24 -0 -9.40697e-06)
(1.66604e-22 -0 -9.40697e-06)
(-1.68294e-22 -1.68294e-22 -9.40697e-06)
(1.13255e-24 1.13255e-24 -9.40697e-06)
(1.68294e-22 1.68294e-22 -9.40697e-06)
(-0 -0 -9.40697e-06)
(-0 -0 -9.40697e-06)
(-0 -1.7115e-22 -9.40697e-06)
(-1.71727e-22 -1.70575e-22 -9.40697e-06)
(1.73461e-22 3.44611e-22 -9.40697e-06)
(1.70567e-22 1.70567e-22 -9.40697e-06)
(-3.45774e-22 -5.19243e-22 -9.40697e-06)
(-1.72886e-22 -1.71719e-22 -9.40697e-06)
(-1.7464e-22 -1.1713e-24 -9.40697e-06)
(1.76404e-22 1.76404e-22 -9.40697e-06)
(5.251e-22 3.4928e-22 -9.40697e-06)
(-1.77595e-22 -1.76412e-22 -9.40697e-06)
(-3.51639e-22 -1.75819e-22 -9.40697e-06)
(1.77603e-22 -0 -9.40697e-06)
(1.77007e-22 1.78202e-22 -9.40697e-06)
(-0 1.77603e-22 -9.40697e-06)
(-1.79405e-22 -1.79405e-22 -9.40697e-06)
(1.20733e-24 1.20733e-24 -9.40697e-06)
(-1.21138e-24 1.79405e-22 -9.40697e-06)
(1.21549e-24 -0 -9.40697e-06)
(-1.21958e-24 -1.81836e-22 -9.40697e-06)
(1.83673e-22 1.83673e-22 -9.40697e-06)
(1.80608e-22 -2.45563e-24 -9.40697e-06)
(-1.82449e-22 -1.81217e-22 -9.40697e-06)
(-0 -1.23608e-24 -9.40697e-06)
(-0 -1.83681e-22 -9.40697e-06)
(-0 3.71089e-22 -9.40697e-06)
(-1.8617e-22 1.83672e-22 -9.40697e-06)
(1.8805e-22 1.25283e-24 -9.40697e-06)
(1.84913e-22 -1.25708e-24 -9.40697e-06)
(1.2613e-24 1.2613e-24 -9.40697e-06)
(-1.26555e-24 -1.26555e-24 -9.40697e-06)
(1.26983e-24 1.26983e-24 -9.40697e-06)
(-1.2741e-24 -1.2741e-24 -9.40697e-06)
(-1.89328e-22 -1.89328e-22 -9.40697e-06)
(1.91249e-22 1.91249e-22 -9.40697e-06)
(-1.28702e-24 -1.28702e-24 -9.40697e-06)
(1.29138e-24 1.29138e-24 -9.40697e-06)
(1.91894e-22 3.85083e-22 -9.40697e-06)
(-1.93841e-22 -1.95141e-22 -9.40697e-06)
(-1.93189e-22 -3.86379e-22 -9.40697e-06)
(-1.95149e-22 -1.95149e-22 -9.40697e-06)
(1.97121e-22 1.97121e-22 -9.40697e-06)
(-2.63542e-24 -2.63542e-24 -9.40697e-06)
(-1.94485e-22 2.64428e-24 -9.40697e-06)
(-1.3266e-24 -2.6532e-24 -9.40697e-06)
(1.33108e-24 -1.95798e-22 -9.40697e-06)
(1.97794e-22 -1.33556e-24 -9.40697e-06)
(-0 1.34006e-24 -9.40697e-06)
(-0 1.99129e-22 -9.40697e-06)
(-0 -0 -9.40697e-06)
(-0 -0 -9.40697e-06)
(-2.02508e-22 -2.02508e-22 -9.40697e-06)
(1.36279e-24 1.36279e-24 -9.40697e-06)
(4.06383e-22 2.02508e-22 -9.40697e-06)
(2.0319e-22 -0 -9.40697e-06)
(-4.10504e-22 -0 -9.40697e-06)
(-2.03181e-22 -0 -9.40697e-06)
(2.05252e-22 -0 -9.40697e-06)
(-0 -0 -9.40697e-06)
(2.08033e-22 -2.08033e-22 -9.40697e-06)
(2.07334e-22 2.10134e-22 -9.40697e-06)
(-4.18875e-22 -2.12247e-22 -9.40697e-06)
(2.81884e-24 -4.16059e-22 -9.40697e-06)
(4.18875e-22 6.31142e-22 -9.40697e-06)
(-2.11563e-22 2.08725e-22 -9.40697e-06)
(-2.10852e-22 -2.10852e-22 -9.40697e-06)
(-2.12991e-22 -2.12991e-22 -9.40697e-06)
(1.43333e-24 1.43333e-24 -9.40697e-06)
(2.12991e-22 2.12991e-22 -9.40697e-06)
(-0 -0 -9.40697e-06)
(-0 -0 -9.40697e-06)
(-0 -0 -9.40697e-06)
(2.17335e-22 2.17335e-22 -9.40697e-06)
(-1.46258e-24 -1.46258e-24 -9.40697e-06)
(-2.17335e-22 -2.17335e-22 -9.40697e-06)
(-2.1954e-22 -2.1954e-22 -9.40697e-06)
(2.21757e-22 2.21757e-22 -9.40697e-06)
(2.18057e-22 2.18057e-22 -9.40697e-06)
(-2.2028e-22 -2.2028e-22 -9.40697e-06)
(-0 -0 -9.40697e-06)
(2.23265e-22 2.23265e-22 -9.40697e-06)
(-1.5025e-24 -1.5025e-24 -9.40697e-06)
(-2.23265e-22 -2.23265e-22 -9.40697e-06)
(-2.2553e-22 -2.2553e-22 -9.40697e-06)
(1.51773e-24 -2.24772e-22 -9.40697e-06)
(2.2553e-22 2.27053e-22 -9.40697e-06)
(-0 2.2629e-22 -9.40697e-06)
(-2.28586e-22 -0 -9.40697e-06)
(1.5383e-24 -0 -9.40697e-06)
(-1.54348e-24 -2.30129e-22 -9.40697e-06)
(1.54865e-24 -2.29356e-22 -9.40697e-06)
(-2.33237e-22 -0 -9.40697e-06)
(-2.29346e-22 -0 -9.40697e-06)
(4.6493e-22 4.66495e-22 -9.40697e-06)
(4.66498e-22 4.64928e-22 -9.40697e-06)
(-1.57498e-24 -2.34822e-22 -9.40697e-06)
(-2.34034e-22 -2.34034e-22 -9.40697e-06)
(-0 -0 -9.40697e-06)
(-2.37205e-22 -2.37205e-22 -9.40697e-06)
(1.59627e-24 -2.36408e-22 -9.40697e-06)
(2.37205e-22 2.38806e-22 -9.40697e-06)
(2.39611e-22 4.77616e-22 -9.40697e-06)
(-1.61249e-24 -4.8245e-22 -9.40697e-06)
(1.61793e-24 -2.36375e-22 -9.40697e-06)
(-1.62337e-24 4.80838e-22 -9.40697e-06)
(-2.41229e-22 -0 -9.40697e-06)
(-2.43677e-22 -0 -9.40697e-06)
(1.63987e-24 -0 -9.40697e-06)
(2.43677e-22 -0 -9.40697e-06)
(-4.92298e-22 -2.46149e-22 -9.40697e-06)
(-2.43666e-22 -2.45322e-22 -9.40697e-06)
(7.41771e-22 7.43433e-22 -9.40697e-06)
(-3.33541e-24 -5.00311e-24 -9.40697e-06)
(-4.95622e-22 -4.93949e-22 -9.40697e-06)
(2.50325e-22 2.48646e-22 -9.40697e-06)
(2.49484e-22 -0 -9.40697e-06)
(-0 -2.52015e-22 -9.40697e-06)
(-2.52865e-22 -2.51169e-22 -9.40697e-06)
(1.70168e-24 2.53717e-22 -9.40697e-06)
(5.07437e-22 2.52865e-22 -9.40697e-06)
(-1.71316e-24 2.5543e-22 -9.40697e-06)
(-2.54572e-22 -1.71895e-24 -9.40697e-06)
(2.57155e-22 -2.5543e-22 -9.40697e-06)
(-2.59752e-22 -2.58022e-22 -9.40697e-06)
(-5.1431e-22 -2.57155e-22 -9.40697e-06)
(5.19528e-22 5.19528e-22 -9.40697e-06)
(-3.4963e-24 -3.4963e-24 -9.40697e-06)
(-2.5801e-22 -5.19528e-22 -9.40697e-06)
(2.60639e-22 5.24799e-22 -9.40697e-06)
(-2.63284e-22 -3.53167e-24 -9.40697e-06)
(1.77179e-24 -2.60628e-22 -9.40697e-06)
(-1.7778e-24 -1.7778e-24 -9.40697e-06)
(-2.64171e-22 -2.64171e-22 -9.40697e-06)
(2.66851e-22 2.66851e-22 -9.40697e-06)
(2.65955e-22 2.65955e-22 -9.40697e-06)
(-2.68653e-22 -0 -9.40697e-06)
(-2.67751e-22 -2.69559e-22 -9.40697e-06)
(2.70467e-22 1.81401e-24 -9.40697e-06)
(-1.82013e-24 -1.82013e-24 -9.40697e-06)
(1.82628e-24 1.82628e-24 -9.40697e-06)
(-1.83244e-24 -1.83244e-24 -9.40697e-06)
(2.75971e-22 2.75971e-22 -9.40697e-06)
(-3.68964e-24 -3.68964e-24 -9.40697e-06)
(-2.72281e-22 -2.72281e-22 -9.40697e-06)
(2.75056e-22 2.75056e-22 -9.40697e-06)
(-0 -0 -9.40697e-06)
(-0 -0 -9.40697e-06)
(-0 -0 -9.40697e-06)
(-0 -0 -9.40697e-06)
(2.81611e-22 2.81611e-22 -9.40697e-06)
(-1.89515e-24 -1.89515e-24 -9.40697e-06)
(-2.81611e-22 -2.81611e-22 -9.40697e-06)
(-2.84468e-22 -0 -9.40697e-06)
(1.91435e-24 -2.85427e-22 -9.40697e-06)
(2.84468e-22 1.92084e-24 -9.40697e-06)
(2.87355e-22 5.72782e-22 -9.40697e-06)
(-1.93378e-24 -2.90257e-22 -9.40697e-06)
(-5.7665e-22 -5.74709e-22 -9.40697e-06)
(2.92217e-22 5.8054e-22 -9.40697e-06)
(2.87342e-22 2.87342e-22 -9.40697e-06)
(-5.825e-22 -2.9027e-22 -9.40697e-06)
(1.96659e-24 -0 -9.40697e-06)
(2.9223e-22 -2.94203e-22 -9.40697e-06)
(-2.95195e-22 1.97986e-24 -9.40697e-06)
(2.98176e-22 5.90393e-22 -9.40697e-06)
(2.93202e-22 -2.99181e-22 -9.40697e-06)
(-2.9619e-22 3.99996e-24 -9.40697e-06)
(2.99195e-22 2.95181e-22 -9.40697e-06)
(-2.01345e-24 -2.9819e-22 -9.40697e-06)
(-2.99195e-22 -3.01215e-22 -9.40697e-06)
(-0 -3.00203e-22 -9.40697e-06)
)
;

boundaryField
{
    top
    {
        type            calculated;
        value           uniform (-0 -3.00203e-22 -9.40697e-06);
    }
    left
    {
        type            empty;
    }
    right
    {
        type            empty;
    }
    front
    {
        type            empty;
    }
    back
    {
        type            empty;
    }
    bottom
    {
        type            calculated;
        value           uniform (7.55575e-23 7.55575e-23 -9.40697e-06);
    }
}


// ************************************************************************* //
