/*--------------------------------*- C++ -*----------------------------------*\
  =========                 |
  \\      /  F ield         | OpenFOAM: The Open Source CFD Toolbox
   \\    /   O peration     | Website:  https://openfoam.org
    \\  /    A nd           | Version:  7
     \\/     M anipulation  |
\*---------------------------------------------------------------------------*/
FoamFile
{
    version     2.0;
    format      ascii;
    class       volVectorField;
    location    "0.000";
    object      U;
}
// * * * * * * * * * * * * * * * * * * * * * * * * * * * * * * * * * * * * * //

dimensions      [0 1 -1 0 0 0 0];

internalField   nonuniform List<vector> 
200
(
(1.70647e-23 1.70647e-23 -6.1482e-07)
(1.70647e-23 1.70647e-23 -6.1482e-07)
(-1.70647e-23 -0 -6.1482e-07)
(-8.90444e-38 -1.70647e-23 -6.1482e-07)
(1.70647e-23 -1.70647e-23 -6.1482e-07)
(1.70647e-23 1.70647e-23 -6.1482e-07)
(-4.54695e-38 1.70647e-23 -6.1482e-07)
(-1.70647e-23 -0 -6.1482e-07)
(1.70647e-23 -0 -6.1482e-07)
(-1.70647e-23 -1.70647e-23 -6.1482e-07)
(-3.41294e-23 -1.70647e-23 -6.1482e-07)
(3.41294e-23 3.41294e-23 -6.1482e-07)
(3.41294e-23 3.41294e-23 -6.1482e-07)
(-5.11941e-23 -5.11941e-23 -6.1482e-07)
(-0 -0 -6.1482e-07)
(5.11941e-23 3.41294e-23 -6.1482e-07)
(-3.41294e-23 -3.41294e-23 -6.1482e-07)
(3.78912e-39 1.89456e-39 -6.1482e-07)
(1.70647e-23 1.70647e-23 -6.1482e-07)
(2.84184e-37 3.41294e-23 -6.1482e-07)
(1.70647e-23 -3.78912e-39 -6.1482e-07)
(-0 -3.41294e-23 -6.1482e-07)
(-5.11941e-23 -1.70647e-23 -6.1482e-07)
(-1.12916e-36 1.70647e-23 -6.1482e-07)
(6.82588e-23 3.41294e-23 -6.1482e-07)
(-3.41294e-23 -1.70647e-23 -6.1482e-07)
(-5.11941e-23 -3.41294e-23 -6.1482e-07)
(5.11941e-23 1.70647e-23 -6.1482e-07)
(-1.13674e-36 1.70647e-23 -6.1482e-07)
(-5.11941e-23 -3.41294e-23 -6.1482e-07)
(-0 -1.89456e-39 -6.1482e-07)
(-0 -1.91351e-37 -6.1482e-07)
(3.41294e-23 -1.91351e-37 -6.1482e-07)
(1.70647e-23 1.70647e-23 -6.1482e-07)
(-1.91351e-37 1.70647e-23 -6.1482e-07)
(-1.70647e-23 -1.89456e-39 -6.1482e-07)
(-3.41294e-23 -3.41294e-23 -6.1482e-07)
(5.11941e-23 1.70647e-23 -6.1482e-07)
(3.41294e-23 1.70647e-23 -6.1482e-07)
(-1.89456e-37 -1.89456e-37 -6.1482e-07)
(-3.41294e-23 -1.49455e-69 -6.1482e-07)
(-3.41294e-23 -1.70647e-23 -6.1482e-07)
(-1.91351e-37 -0 -6.1482e-07)
(-0 -0 -6.1482e-07)
(3.41294e-23 -0 -6.1482e-07)
(-1.89456e-37 -1.70647e-23 -6.1482e-07)
(-1.91351e-37 -1.91351e-37 -6.1482e-07)
(-1.70647e-23 -1.89456e-39 -6.1482e-07)
(-7.61614e-37 -3.80807e-37 -6.1482e-07)
(-3.82701e-37 -1.70647e-23 -6.1482e-07)
(-3.41294e-23 -1.70647e-23 -6.1482e-07)
(3.41294e-23 5.11941e-23 -6.1482e-07)
(2.98909e-69 -1.70647e-23 -6.1482e-07)
(-7.61614e-37 -1.13674e-36 -6.1482e-07)
(7.57824e-37 1.70647e-23 -6.1482e-07)
(-3.41294e-23 -1.70647e-23 -6.1482e-07)
(3.41294e-23 1.70647e-23 -6.1482e-07)
(3.41294e-23 -0 -6.1482e-07)
(-0 1.70647e-23 -6.1482e-07)
(-0 1.70647e-23 -6.1482e-07)
(-0 -1.70647e-23 -6.1482e-07)
(-0 -1.70647e-23 -6.1482e-07)
(-0 1.70647e-23 -6.1482e-07)
(-3.41294e-23 -1.70647e-23 -6.1482e-07)
(-3.41294e-23 -5.11941e-23 -6.1482e-07)
(3.41294e-23 1.70647e-23 -6.1482e-07)
(7.54035e-37 1.70647e-23 -6.1482e-07)
(-3.41294e-23 -0 -6.1482e-07)
(-0 -1.70647e-23 -6.1482e-07)
(-1.70647e-23 -1.70647e-23 -6.1482e-07)
(-7.5593e-37 1.70647e-23 -6.1482e-07)
(1.70647e-23 -0 -6.1482e-07)
(-0 -1.70647e-23 -6.1482e-07)
(-1.70647e-23 1.40114e-70 -6.1482e-07)
(1.70647e-23 1.70647e-23 -6.1482e-07)
(5.11941e-23 3.41294e-23 -6.1482e-07)
(-1.70647e-23 -1.51565e-36 -6.1482e-07)
(-3.41294e-23 -1.70647e-23 -6.1482e-07)
(-0 -3.77018e-37 -6.1482e-07)
(-0 -1.70647e-23 -6.1482e-07)
(-0 -0 -6.1482e-07)
(1.70647e-23 1.70647e-23 -6.1482e-07)
(3.41294e-23 3.41294e-23 -6.1482e-07)
(1.51754e-36 1.51754e-36 -6.1482e-07)
(-3.41294e-23 -3.41294e-23 -6.1482e-07)
(-1.70647e-23 -1.70647e-23 -6.1482e-07)
(3.41294e-23 1.70647e-23 -6.1482e-07)
(7.65403e-37 3.82701e-37 -6.1482e-07)
(-1.70647e-23 -3.75123e-37 -6.1482e-07)
(3.41294e-23 1.70647e-23 -6.1482e-07)
(-1.70647e-23 -1.70647e-23 -6.1482e-07)
(-2.2659e-36 1.70647e-23 -6.1482e-07)
(7.57824e-37 1.70647e-23 -6.1482e-07)
(-3.41294e-23 -3.41294e-23 -6.1482e-07)
(-0 -1.13484e-36 -6.1482e-07)
(-0 1.89456e-39 -6.1482e-07)
(3.41294e-23 -7.59719e-37 -6.1482e-07)
(-7.57824e-37 -1.70647e-23 -6.1482e-07)
(-3.41294e-23 -1.70647e-23 -6.1482e-07)
(-0 1.70647e-23 -6.1482e-07)
(-1.70647e-23 -0 -6.1482e-07)
(3.41294e-23 3.41294e-23 -6.1482e-07)
(1.70647e-23 3.0313e-36 -6.1482e-07)
(-3.41294e-23 -3.41294e-23 -6.1482e-07)
(-1.70647e-23 -0 -6.1482e-07)
(1.70647e-23 1.70647e-23 -6.1482e-07)
(1.70647e-23 1.89456e-39 -6.1482e-07)
(-1.70647e-23 -1.70647e-23 -6.1482e-07)
(-1.70647e-23 -0 -6.1482e-07)
(3.41294e-23 1.70647e-23 -6.1482e-07)
(7.57824e-39 1.89456e-39 -6.1482e-07)
(-3.41294e-23 -1.70647e-23 -6.1482e-07)
(3.41294e-23 1.70647e-23 -6.1482e-07)
(-1.70647e-23 -7.5593e-37 -6.1482e-07)
(-1.70647e-23 -1.70647e-23 -6.1482e-07)
(7.5593e-37 -0 -6.1482e-07)
(1.70647e-23 1.70647e-23 -6.1482e-07)
(-0 -0 -6.1482e-07)
(1.51186e-36 7.5593e-37 -6.1482e-07)
(3.78912e-39 1.89456e-39 -6.1482e-07)
(-1.51186e-36 -7.5593e-37 -6.1482e-07)
(-1.51186e-36 -7.5593e-37 -6.1482e-07)
(-1.70647e-23 -1.70647e-23 -6.1482e-07)
(1.70647e-23 -0 -6.1482e-07)
(-0 -0 -6.1482e-07)
(-1.70647e-23 -0 -6.1482e-07)
(1.70647e-23 1.70647e-23 -6.1482e-07)
(1.70647e-23 1.89456e-39 -6.1482e-07)
(-1.51375e-36 -1.51375e-36 -6.1482e-07)
(-7.57824e-37 -7.57824e-37 -6.1482e-07)
(-1.70647e-23 -1.70647e-23 -6.1482e-07)
(-1.70647e-23 -0 -6.1482e-07)
(1.70647e-23 1.70647e-23 -6.1482e-07)
(1.70647e-23 -7.57824e-37 -6.1482e-07)
(-1.70647e-23 -0 -6.1482e-07)
(-1.70647e-23 -7.5593e-37 -6.1482e-07)
(1.51565e-36 -1.70647e-23 -6.1482e-07)
(3.41294e-23 1.70647e-23 -6.1482e-07)
(-2.27347e-36 1.70647e-23 -6.1482e-07)
(-1.51565e-36 -0 -6.1482e-07)
(-7.57824e-37 -1.70647e-23 -6.1482e-07)
(-1.70647e-23 -1.70647e-23 -6.1482e-07)
(-0 -0 -6.1482e-07)
(1.70647e-23 1.70647e-23 -6.1482e-07)
(-1.70647e-23 1.89456e-39 -6.1482e-07)
(-1.70647e-23 -1.51375e-36 -6.1482e-07)
(3.41294e-23 1.70647e-23 -6.1482e-07)
(1.70647e-23 -0 -6.1482e-07)
(-3.41294e-23 -1.70647e-23 -6.1482e-07)
(-0 -0 -6.1482e-07)
(1.70647e-23 1.89456e-39 -6.1482e-07)
(-1.70647e-23 -0 -6.1482e-07)
(-1.70647e-23 7.57824e-37 -6.1482e-07)
(1.70647e-23 -7.57824e-37 -6.1482e-07)
(5.11941e-23 3.41294e-23 -6.1482e-07)
(7.57824e-37 7.57824e-37 -6.1482e-07)
(-3.41294e-23 -3.41294e-23 -6.1482e-07)
(-1.70647e-23 -1.70647e-23 -6.1482e-07)
(-1.70647e-23 -0 -6.1482e-07)
(-1.51565e-36 -0 -6.1482e-07)
(1.70647e-23 -0 -6.1482e-07)
(-0 1.70647e-23 -6.1482e-07)
(1.70647e-23 1.70647e-23 -6.1482e-07)
(1.89456e-39 -0 -6.1482e-07)
(-7.57824e-37 -0 -6.1482e-07)
(-9.34091e-71 -1.70647e-23 -6.1482e-07)
(-1.70647e-23 -1.70647e-23 -6.1482e-07)
(-0 -0 -6.1482e-07)
(3.41294e-23 3.41294e-23 -6.1482e-07)
(-1.70647e-23 -1.50807e-36 -6.1482e-07)
(-1.70647e-23 -1.70647e-23 -6.1482e-07)
(5.11941e-23 3.41294e-23 -6.1482e-07)
(7.57824e-37 -1.70647e-23 -6.1482e-07)
(-3.41294e-23 -3.41294e-23 -6.1482e-07)
(-1.70647e-23 -0 -6.1482e-07)
(-1.70647e-23 -0 -6.1482e-07)
(7.5593e-37 -0 -6.1482e-07)
(1.70647e-23 -0 -6.1482e-07)
(-0 -0 -6.1482e-07)
(3.41294e-23 1.70647e-23 -6.1482e-07)
(3.41294e-23 3.41294e-23 -6.1482e-07)
(-5.11941e-23 -1.70647e-23 -6.1482e-07)
(-3.41294e-23 -1.70647e-23 -6.1482e-07)
(-7.5593e-37 -7.5593e-37 -6.1482e-07)
(3.41294e-23 1.70647e-23 -6.1482e-07)
(1.70647e-23 -3.78912e-39 -6.1482e-07)
(-3.41294e-23 -3.41294e-23 -6.1482e-07)
(-0 -0 -6.1482e-07)
(1.70647e-23 1.70647e-23 -6.1482e-07)
(1.89456e-39 1.70647e-23 -6.1482e-07)
(-3.41294e-23 -1.70647e-23 -6.1482e-07)
(1.70647e-23 -3.0294e-36 -6.1482e-07)
(1.70647e-23 -1.70647e-23 -6.1482e-07)
(-1.70647e-23 -1.70647e-23 -6.1482e-07)
(-1.70647e-23 1.70647e-23 -6.1482e-07)
(-0 1.70647e-23 -6.1482e-07)
(3.41294e-23 1.70647e-23 -6.1482e-07)
(1.70647e-23 -0 -6.1482e-07)
(-3.41294e-23 -1.70647e-23 -6.1482e-07)
(-3.41873e-22 -1.70936e-22 -6.15863e-06)
)
;

boundaryField
{
    top
    {
        type            calculated;
        value           uniform (-3.20108e-21 -1.60054e-21 -8.36199e-05);
    }
    left
    {
        type            empty;
    }
    right
    {
        type            empty;
    }
    front
    {
        type            empty;
    }
    back
    {
        type            empty;
    }
    bottom
    {
        type            calculated;
        value           uniform (1.70647e-23 1.70647e-23 -6.1482e-07);
    }
}


// ************************************************************************* //
