/*--------------------------------*- C++ -*----------------------------------*\
  =========                 |
  \\      /  F ield         | OpenFOAM: The Open Source CFD Toolbox
   \\    /   O peration     | Website:  https://openfoam.org
    \\  /    A nd           | Version:  7
     \\/     M anipulation  |
\*---------------------------------------------------------------------------*/
FoamFile
{
    version     2.0;
    format      ascii;
    class       volScalarField;
    location    "0.000";
    object      theta;
}
// * * * * * * * * * * * * * * * * * * * * * * * * * * * * * * * * * * * * * //

dimensions      [0 0 0 0 0 0 0];

internalField   nonuniform List<scalar> 
101
(
0.242131
0.242132
0.242132
0.242132
0.242132
0.242132
0.242132
0.242132
0.242132
0.242132
0.242132
0.242132
0.242132
0.242132
0.242132
0.242132
0.242132
0.242132
0.242132
0.242132
0.242132
0.242132
0.242132
0.242132
0.242132
0.242132
0.242132
0.242132
0.242132
0.242132
0.242132
0.242132
0.242132
0.242132
0.242132
0.242132
0.242132
0.242132
0.242132
0.242132
0.242132
0.242132
0.242132
0.242132
0.242132
0.242132
0.242132
0.242132
0.242132
0.242132
0.242132
0.242132
0.242132
0.242132
0.242132
0.242132
0.242132
0.242132
0.242132
0.242132
0.242132
0.242132
0.242132
0.242132
0.242132
0.242132
0.242132
0.242132
0.242132
0.242132
0.242132
0.242132
0.242132
0.242132
0.242132
0.242132
0.242132
0.242132
0.242132
0.242132
0.242132
0.242132
0.242132
0.242132
0.242132
0.242132
0.242132
0.242132
0.242132
0.242132
0.242132
0.242132
0.242132
0.242132
0.242132
0.242132
0.242132
0.242132
0.242132
0.242331
0.348566
)
;

boundaryField
{
    top
    {
        type            zeroGradient;
    }
    left
    {
        type            empty;
    }
    right
    {
        type            empty;
    }
    front
    {
        type            empty;
    }
    back
    {
        type            empty;
    }
    bottom
    {
        type            zeroGradient;
    }
}


// ************************************************************************* //
