/*--------------------------------*- C++ -*----------------------------------*\
  =========                 |
  \\      /  F ield         | OpenFOAM: The Open Source CFD Toolbox
   \\    /   O peration     | Website:  https://openfoam.org
    \\  /    A nd           | Version:  7
     \\/     M anipulation  |
\*---------------------------------------------------------------------------*/
FoamFile
{
    version     2.0;
    format      ascii;
    class       volVectorField;
    location    "0.000";
    object      U;
}
// * * * * * * * * * * * * * * * * * * * * * * * * * * * * * * * * * * * * * //

dimensions      [0 1 -1 0 0 0 0];

internalField   nonuniform List<vector> 
101
(
(-1.10263e-25 -1.10263e-25 -3.93329e-09)
(-1.1121e-35 -1.10107e-25 -3.92773e-09)
(2.20213e-25 1.10107e-25 -3.92773e-09)
(1.10107e-25 2.20213e-25 -3.92773e-09)
(-0 -1.11208e-34 -3.92773e-09)
(-0 -3.3032e-25 -3.92773e-09)
(1.10107e-25 -2.22414e-34 -3.92773e-09)
(-2.20213e-25 -1.10107e-25 -3.92773e-09)
(-1.10107e-25 -1.10107e-25 -3.92773e-09)
(1.10107e-25 2.20213e-25 -3.92773e-09)
(1.10107e-25 2.20213e-25 -3.92773e-09)
(1.10107e-25 -1.10107e-25 -3.92773e-09)
(-3.3032e-25 -4.40426e-25 -3.92773e-09)
(1.10107e-25 1.10107e-25 -3.92773e-09)
(2.20213e-25 1.10107e-25 -3.92773e-09)
(-3.3032e-25 -2.20213e-25 -3.92773e-09)
(-2.20213e-25 -1.21032e-39 -3.92773e-09)
(3.3032e-25 4.40426e-25 -3.92773e-09)
(-1.83969e-39 -1.10107e-25 -3.92773e-09)
(-1.10107e-25 -3.3032e-25 -3.92773e-09)
(-3.67939e-39 -1.83969e-39 -3.92773e-09)
(1.10107e-25 3.3032e-25 -3.92773e-09)
(2.20213e-25 2.20213e-25 -3.92773e-09)
(-1.10107e-25 -2.20213e-25 -3.92773e-09)
(-0 -1.10107e-25 -3.92773e-09)
(-2.20213e-25 -2.20213e-25 -3.92773e-09)
(-2.20213e-25 -1.10107e-25 -3.92773e-09)
(-0 -0 -3.92773e-09)
(1.10107e-25 1.10107e-25 -3.92773e-09)
(-1.25874e-39 -1.25874e-39 -3.92773e-09)
(1.10107e-25 1.23453e-39 -3.92773e-09)
(-2.46906e-39 -1.23453e-39 -3.92773e-09)
(2.42065e-39 1.21032e-39 -3.92773e-09)
(2.20213e-25 2.20213e-25 -3.92773e-09)
(-0 1.10107e-25 -3.92773e-09)
(-1.10107e-25 -0 -3.92773e-09)
(-2.20213e-25 -1.10107e-25 -3.92773e-09)
(-1.10107e-25 -1.10107e-25 -3.92773e-09)
(-0 -1.10107e-25 -3.92773e-09)
(2.20213e-25 2.46906e-39 -3.92773e-09)
(1.10107e-25 2.20213e-25 -3.92773e-09)
(-2.20213e-25 -1.10107e-25 -3.92773e-09)
(-2.42065e-39 -4.8413e-39 -3.92773e-09)
(-1.23453e-39 -2.46906e-39 -3.92773e-09)
(-2.46906e-39 -1.10107e-25 -3.92773e-09)
(1.10107e-25 2.20213e-25 -3.92773e-09)
(-1.10107e-25 2.49327e-39 -3.92773e-09)
(1.10107e-25 -4.8413e-41 -3.92773e-09)
(-4.88971e-39 -2.44486e-39 -3.92773e-09)
(-1.10107e-25 -2.20213e-25 -3.92773e-09)
(1.10107e-25 2.49327e-39 -3.92773e-09)
(1.10107e-25 2.20213e-25 -3.92773e-09)
(-2.46906e-39 -2.46906e-39 -3.92773e-09)
(-4.98654e-39 -4.98654e-39 -3.92773e-09)
(-1.10107e-25 -2.44486e-39 -3.92773e-09)
(-2.20213e-25 -2.20213e-25 -3.92773e-09)
(-0 -1.10107e-25 -3.92773e-09)
(1.10107e-25 1.10107e-25 -3.92773e-09)
(1.10107e-25 2.20213e-25 -3.92773e-09)
(1.10107e-25 1.10107e-25 -3.92773e-09)
(4.8413e-41 -1.10107e-25 -3.92773e-09)
(-2.20213e-25 -1.10107e-25 -3.92773e-09)
(1.10107e-25 1.10107e-25 -3.92773e-09)
(-4.93812e-39 -1.10107e-25 -3.92773e-09)
(-0 -0 -3.92773e-09)
(-4.88971e-39 -4.88971e-39 -3.92773e-09)
(-4.88971e-39 1.10107e-25 -3.92773e-09)
(-1.10107e-25 -7.31036e-39 -3.92773e-09)
(-7.40719e-39 -1.10107e-25 -3.92773e-09)
(2.20213e-25 2.20213e-25 -3.92773e-09)
(-2.20213e-25 -2.20213e-25 -3.92773e-09)
(-2.20213e-25 -1.10107e-25 -3.92773e-09)
(2.20213e-25 2.20213e-25 -3.92773e-09)
(2.20213e-25 1.10107e-25 -3.92773e-09)
(-1.10107e-25 -1.10107e-25 -3.92773e-09)
(-0 -1.10107e-25 -3.92773e-09)
(1.10107e-25 1.10107e-25 -3.92773e-09)
(2.51748e-39 2.51748e-39 -3.92773e-09)
(-2.51748e-39 -2.51748e-39 -3.92773e-09)
(2.49327e-39 2.49327e-39 -3.92773e-09)
(-2.42065e-41 -2.42065e-41 -3.92773e-09)
(-2.49327e-39 -2.49327e-39 -3.92773e-09)
(-4.98654e-39 -4.98654e-39 -3.92773e-09)
(-2.44486e-39 -2.44486e-39 -3.92773e-09)
(-4.96233e-39 -4.96233e-39 -3.92773e-09)
(-1.10107e-25 2.42065e-41 -3.92773e-09)
(-9.87625e-39 -4.93812e-39 -3.92773e-09)
(1.10107e-25 -4.88971e-39 -3.92773e-09)
(-2.46906e-39 -2.46906e-39 -3.92773e-09)
(-1.10107e-25 -1.10107e-25 -3.92773e-09)
(-2.20213e-25 -2.20213e-25 -3.92773e-09)
(1.10107e-25 2.20213e-25 -3.92773e-09)
(4.8413e-41 1.10107e-25 -3.92773e-09)
(-1.10107e-25 -1.10107e-25 -3.92773e-09)
(1.10107e-25 1.10107e-25 -3.92773e-09)
(1.10107e-25 -2.46906e-39 -3.92773e-09)
(-0 -4.98654e-39 -3.92773e-09)
(-1.10107e-25 -2.49327e-39 -3.92773e-09)
(-2.49365e-39 1.10124e-25 -3.92834e-09)
(1.65977e-25 -7.29787e-41 -5.92074e-09)
(-0 -3.86606e-22 -6.89551e-06)
)
;

boundaryField
{
    top
    {
        type            calculated;
        value           uniform (-0 -1.00479e-20 -0.000179214);
    }
    left
    {
        type            empty;
    }
    right
    {
        type            empty;
    }
    front
    {
        type            empty;
    }
    back
    {
        type            empty;
    }
    bottom
    {
        type            calculated;
        value           uniform (-1.08582e-25 -1.08582e-25 -7.73552e-09);
    }
}


// ************************************************************************* //
