/*--------------------------------*- C++ -*----------------------------------*\
  =========                 |
  \\      /  F ield         | OpenFOAM: The Open Source CFD Toolbox
   \\    /   O peration     | Website:  https://openfoam.org
    \\  /    A nd           | Version:  7
     \\/     M anipulation  |
\*---------------------------------------------------------------------------*/
FoamFile
{
    version     2.0;
    format      ascii;
    class       volVectorField;
    location    "0.000";
    object      U;
}
// * * * * * * * * * * * * * * * * * * * * * * * * * * * * * * * * * * * * * //

dimensions      [0 1 -1 0 0 0 0];

internalField   nonuniform List<vector> 
600
(
(2.50615e-26 5.01231e-26 -1.43707e-09)
(-3.54265e-41 -7.08531e-41 -1.43707e-09)
(-2.21416e-41 -4.42832e-41 -1.43707e-09)
(-4.42832e-41 5.01231e-26 -1.43707e-09)
(-2.50615e-26 -0 -1.43707e-09)
(2.50615e-26 -0 -1.43707e-09)
(2.50615e-26 -0 -1.43707e-09)
(-0 -0 -1.43707e-09)
(-2.50615e-26 -2.50615e-26 -1.43707e-09)
(-2.65699e-40 -2.50615e-26 -1.43707e-09)
(8.85664e-41 -0 -1.43707e-09)
(-1.77133e-40 2.50615e-26 -1.43707e-09)
(8.85664e-41 8.85664e-41 -1.43707e-09)
(-2.50615e-26 -2.50615e-26 -1.43707e-09)
(-0 -0 -1.43707e-09)
(-0 -0 -1.43707e-09)
(-0 2.50615e-26 -1.43707e-09)
(-0 4.42832e-42 -1.43707e-09)
(-0 -2.50615e-26 -1.43707e-09)
(-0 -0 -1.43707e-09)
(-0 2.50615e-26 -1.43707e-09)
(-0 4.42832e-42 -1.43707e-09)
(-0 -2.50615e-26 -1.43707e-09)
(-0 -0 -1.43707e-09)
(-0 2.50615e-26 -1.43707e-09)
(2.50615e-26 2.50615e-26 -1.43707e-09)
(1.68276e-40 -2.50615e-26 -1.43707e-09)
(-5.18113e-40 -5.18113e-40 -1.43707e-09)
(2.50615e-26 2.50615e-26 -1.43707e-09)
(-2.50615e-26 -2.50615e-26 -1.43707e-09)
(-3.45409e-40 -3.45409e-40 -1.43707e-09)
(-4.42832e-42 -4.42832e-42 -1.43707e-09)
(-2.50615e-26 -2.50615e-26 -1.43707e-09)
(-0 2.50615e-26 -1.43707e-09)
(-2.50615e-26 -2.50615e-26 -1.43707e-09)
(2.50615e-26 8.85664e-42 -1.43707e-09)
(2.50615e-26 2.50615e-26 -1.43707e-09)
(-2.50615e-26 -2.50615e-26 -1.43707e-09)
(-0 -0 -1.43707e-09)
(-0 2.50615e-26 -1.43707e-09)
(-0 -3.45409e-40 -1.43707e-09)
(-0 -2.50615e-26 -1.43707e-09)
(-2.50615e-26 -2.50615e-26 -1.43707e-09)
(3.49837e-40 3.49837e-40 -1.43707e-09)
(5.01231e-26 5.01231e-26 -1.43707e-09)
(8.73332e-73 8.73332e-73 -1.43707e-09)
(-2.50615e-26 -2.50615e-26 -1.43707e-09)
(2.50615e-26 2.50615e-26 -1.43707e-09)
(-2.50615e-26 -2.50615e-26 -1.43707e-09)
(-2.50615e-26 -2.50615e-26 -1.43707e-09)
(2.50615e-26 2.50615e-26 -1.43707e-09)
(-0 -0 -1.43707e-09)
(-0 -0 -1.43707e-09)
(-0 -0 -1.43707e-09)
(-0 2.50615e-26 -1.43707e-09)
(-0 3.45409e-40 -1.43707e-09)
(-0 -6.95246e-40 -1.43707e-09)
(-0 -2.50615e-26 -1.43707e-09)
(-0 -2.78098e-39 -1.43707e-09)
(-0 2.50615e-26 -1.43707e-09)
(-0 -2.50615e-26 -1.43707e-09)
(-0 2.50615e-26 -1.43707e-09)
(-0 6.99674e-40 -1.43707e-09)
(-0 -2.50615e-26 -1.43707e-09)
(-0 -0 -1.43707e-09)
(-0 2.50615e-26 -1.43707e-09)
(-0 -0 -1.43707e-09)
(-0 -0 -1.43707e-09)
(-0 4.42832e-42 -1.43707e-09)
(2.50615e-26 -2.50615e-26 -1.43707e-09)
(6.99674e-40 -0 -1.43707e-09)
(-2.50615e-26 2.50615e-26 -1.43707e-09)
(-0 -8.85664e-42 -1.43707e-09)
(-0 -2.50615e-26 -1.43707e-09)
(-0 2.50615e-26 -1.43707e-09)
(-0 -6.90818e-40 -1.43707e-09)
(-0 -2.50615e-26 -1.43707e-09)
(-0 2.50615e-26 -1.43707e-09)
(-0 2.50615e-26 -1.43707e-09)
(-0 -2.50615e-26 -1.43707e-09)
(-0 -2.50615e-26 -1.43707e-09)
(-0 -0 -1.43707e-09)
(-0 -0 -1.43707e-09)
(-0 2.50615e-26 -1.43707e-09)
(2.50615e-26 2.50615e-26 -1.43707e-09)
(8.85664e-42 -2.50615e-26 -1.43707e-09)
(-2.50615e-26 -2.50615e-26 -1.43707e-09)
(-0 -0 -1.43707e-09)
(-0 -0 -1.43707e-09)
(-0 -0 -1.43707e-09)
(-0 -0 -1.43707e-09)
(2.50615e-26 2.50615e-26 -1.43707e-09)
(-1.38606e-39 -1.38606e-39 -1.43707e-09)
(-2.50615e-26 -2.50615e-26 -1.43707e-09)
(-0 -0 -1.43707e-09)
(-0 -0 -1.43707e-09)
(-0 -0 -1.43707e-09)
(-0 -0 -1.43707e-09)
(-0 -0 -1.43707e-09)
(-0 -0 -1.43707e-09)
(-0 -0 -1.43707e-09)
(-0 -0 -1.43707e-09)
(-0 -0 -1.43707e-09)
(-0 -0 -1.43707e-09)
(-0 -0 -1.43707e-09)
(-0 -0 -1.43707e-09)
(-0 -0 -1.43707e-09)
(-0 -0 -1.43707e-09)
(-0 2.50615e-26 -1.43707e-09)
(-0 6.95246e-40 -1.43707e-09)
(-0 -1.39049e-39 -1.43707e-09)
(-0 6.95246e-40 -1.43707e-09)
(-0 -2.50615e-26 -1.43707e-09)
(-2.50615e-26 -2.50615e-26 -1.43707e-09)
(6.95246e-40 6.95246e-40 -1.43707e-09)
(2.50615e-26 2.50615e-26 -1.43707e-09)
(2.50615e-26 -0 -1.43707e-09)
(2.08574e-39 2.50615e-26 -1.43707e-09)
(-2.50615e-26 1.39492e-39 -1.43707e-09)
(-0 -2.50615e-26 -1.43707e-09)
(-0 -0 -1.43707e-09)
(-0 -0 -1.43707e-09)
(-0 -0 -1.43707e-09)
(-0 2.50615e-26 -1.43707e-09)
(2.50615e-26 2.50615e-26 -1.43707e-09)
(2.50615e-26 -0 -1.43707e-09)
(-0 -0 -1.43707e-09)
(-2.50615e-26 -2.50615e-26 -1.43707e-09)
(1.39492e-39 1.39492e-39 -1.43707e-09)
(8.85664e-42 8.85664e-42 -1.43707e-09)
(4.42832e-42 4.42832e-42 -1.43707e-09)
(-1.39935e-39 5.01231e-26 -1.43707e-09)
(-2.50615e-26 -2.50615e-26 -1.43707e-09)
(-0 -5.01231e-26 -1.43707e-09)
(-0 -0 -1.43707e-09)
(-0 2.50615e-26 -1.43707e-09)
(2.50615e-26 2.50615e-26 -1.43707e-09)
(-0 -2.50615e-26 -1.43707e-09)
(-1.39049e-39 -1.39049e-39 -1.43707e-09)
(2.50615e-26 5.01231e-26 -1.43707e-09)
(-2.50615e-26 -2.50615e-26 -1.43707e-09)
(-2.50615e-26 -5.01231e-26 -1.43707e-09)
(-0 -0 -1.43707e-09)
(2.50615e-26 2.50615e-26 -1.43707e-09)
(1.39049e-39 1.39049e-39 -1.43707e-09)
(-2.50615e-26 -2.50615e-26 -1.43707e-09)
(-0 -0 -1.43707e-09)
(-0 -0 -1.43707e-09)
(-0 -0 -1.43707e-09)
(2.50615e-26 2.50615e-26 -1.43707e-09)
(-8.85664e-42 -8.85664e-42 -1.43707e-09)
(-2.50615e-26 -2.50615e-26 -1.43707e-09)
(-0 5.01231e-26 -1.43707e-09)
(-0 2.78098e-39 -1.43707e-09)
(-0 -5.01231e-26 -1.43707e-09)
(-0 -0 -1.43707e-09)
(2.50615e-26 2.50615e-26 -1.43707e-09)
(-4.42832e-42 -4.42832e-42 -1.43707e-09)
(-2.50615e-26 -2.50615e-26 -1.43707e-09)
(-0 -0 -1.43707e-09)
(-0 -0 -1.43707e-09)
(-0 -0 -1.43707e-09)
(2.50615e-26 2.50615e-26 -1.43707e-09)
(-4.42832e-42 -4.42832e-42 -1.43707e-09)
(-2.50615e-26 -2.50615e-26 -1.43707e-09)
(-0 -0 -1.43707e-09)
(-0 5.01231e-26 -1.43707e-09)
(-0 5.57082e-39 -1.43707e-09)
(2.50615e-26 -2.50615e-26 -1.43707e-09)
(2.50615e-26 2.50615e-26 -1.43707e-09)
(-0 -0 -1.43707e-09)
(-2.50615e-26 2.50615e-26 -1.43707e-09)
(-2.50615e-26 -2.50615e-26 -1.43707e-09)
(-0 -5.01231e-26 -1.43707e-09)
(-0 2.50615e-26 -1.43707e-09)
(-0 -8.85664e-42 -1.43707e-09)
(-0 -1.39049e-39 -1.43707e-09)
(-0 1.39049e-39 -1.43707e-09)
(-0 -1.39049e-39 -1.43707e-09)
(-0 -4.42832e-42 -1.43707e-09)
(-0 -1.39492e-39 -1.43707e-09)
(-0 -8.85664e-42 -1.43707e-09)
(-0 -2.50615e-26 -1.43707e-09)
(-0 -0 -1.43707e-09)
(-0 -0 -1.43707e-09)
(-0 -0 -1.43707e-09)
(-0 2.50615e-26 -1.43707e-09)
(-0 1.39049e-39 -1.43707e-09)
(-0 -2.50615e-26 -1.43707e-09)
(-0 5.01231e-26 -1.43707e-09)
(-0 2.78098e-39 -1.43707e-09)
(-0 -5.01231e-26 -1.43707e-09)
(-0 2.50615e-26 -1.43707e-09)
(-0 2.78541e-39 -1.43707e-09)
(-0 -2.50615e-26 -1.43707e-09)
(-0 -0 -1.43707e-09)
(-0 2.50615e-26 -1.43707e-09)
(-0 -1.39492e-39 -1.43707e-09)
(-0 -5.5664e-39 -1.43707e-09)
(-0 1.39049e-39 -1.43707e-09)
(-0 -2.50615e-26 -1.43707e-09)
(2.50615e-26 2.50615e-26 -1.43707e-09)
(1.39049e-39 2.50615e-26 -1.43707e-09)
(-2.50615e-26 -2.50615e-26 -1.43707e-09)
(-0 -2.50615e-26 -1.43707e-09)
(-0 -0 -1.43707e-09)
(-0 -0 -1.43707e-09)
(-0 -0 -1.43707e-09)
(-0 2.50615e-26 -1.43707e-09)
(2.50615e-26 2.50615e-26 -1.43707e-09)
(-5.56197e-39 -2.50615e-26 -1.43707e-09)
(-2.50615e-26 2.50615e-26 -1.43707e-09)
(-0 -1.11151e-38 -1.43707e-09)
(-0 -5.01231e-26 -1.43707e-09)
(-0 -0 -1.43707e-09)
(-0 -0 -1.43707e-09)
(-0 -0 -1.43707e-09)
(-0 -0 -1.43707e-09)
(2.50615e-26 2.50615e-26 -1.43707e-09)
(2.50615e-26 2.50615e-26 -1.43707e-09)
(-0 -0 -1.43707e-09)
(-2.50615e-26 -0 -1.43707e-09)
(-2.50615e-26 -2.50615e-26 -1.43707e-09)
(-0 -2.50615e-26 -1.43707e-09)
(-0 -0 -1.43707e-09)
(-0 -0 -1.43707e-09)
(-0 -0 -1.43707e-09)
(2.50615e-26 2.50615e-26 -1.43707e-09)
(1.38606e-39 2.50615e-26 -1.43707e-09)
(-2.50615e-26 -2.50615e-26 -1.43707e-09)
(-0 -2.50615e-26 -1.43707e-09)
(-0 -0 -1.43707e-09)
(-0 -0 -1.43707e-09)
(-0 2.50615e-26 -1.43707e-09)
(2.50615e-26 2.50615e-26 -1.43707e-09)
(2.78541e-39 -2.50615e-26 -1.43707e-09)
(-1.38164e-39 -1.38164e-39 -1.43707e-09)
(2.50615e-26 2.50615e-26 -1.43707e-09)
(-0 -0 -1.43707e-09)
(-0 -0 -1.43707e-09)
(-0 -0 -1.43707e-09)
(-2.50615e-26 -2.50615e-26 -1.43707e-09)
(-2.50615e-26 2.50615e-26 -1.43707e-09)
(-0 -8.85664e-42 -1.43707e-09)
(2.50615e-26 -2.50615e-26 -1.43707e-09)
(-1.39492e-39 -1.39492e-39 -1.43707e-09)
(-5.56197e-39 -5.56197e-39 -1.43707e-09)
(2.77656e-39 2.77656e-39 -1.43707e-09)
(-1.38606e-39 -1.38606e-39 -1.43707e-09)
(5.56197e-39 5.56197e-39 -1.43707e-09)
(-2.50615e-26 -2.50615e-26 -1.43707e-09)
(-0 -0 -1.43707e-09)
(-0 -0 -1.43707e-09)
(-0 -0 -1.43707e-09)
(-0 -0 -1.43707e-09)
(-0 -0 -1.43707e-09)
(-0 -0 -1.43707e-09)
(-0 -0 -1.43707e-09)
(-0 -0 -1.43707e-09)
(-0 -0 -1.43707e-09)
(-0 -0 -1.43707e-09)
(-0 -0 -1.43707e-09)
(-0 -0 -1.43707e-09)
(-0 -0 -1.43707e-09)
(-2.50615e-26 -0 -1.43707e-09)
(4.42832e-42 -0 -1.43707e-09)
(2.50615e-26 -0 -1.43707e-09)
(-0 -0 -1.43707e-09)
(-0 -0 -1.43707e-09)
(-0 -0 -1.43707e-09)
(-0 -0 -1.43707e-09)
(-0 2.50615e-26 -1.43707e-09)
(-0 -0 -1.43707e-09)
(-0 -2.50615e-26 -1.43707e-09)
(-0 -0 -1.43707e-09)
(-0 -0 -1.43707e-09)
(-0 -0 -1.43707e-09)
(-0 -0 -1.43707e-09)
(-0 -0 -1.43707e-09)
(-0 -0 -1.43707e-09)
(-0 -2.50615e-26 -1.43707e-09)
(-0 4.42832e-42 -1.43707e-09)
(2.50615e-26 5.01231e-26 -1.43707e-09)
(-5.56197e-39 2.50615e-26 -1.43707e-09)
(-5.01231e-26 -2.50615e-26 -1.43707e-09)
(1.74666e-72 1.74666e-72 -1.43707e-09)
(2.50615e-26 2.50615e-26 -1.43707e-09)
(-0 -0 -1.43707e-09)
(-0 -2.50615e-26 -1.43707e-09)
(-0 -2.50615e-26 -1.43707e-09)
(-0 -0 -1.43707e-09)
(-0 -0 -1.43707e-09)
(-0 -0 -1.43707e-09)
(-0 -0 -1.43707e-09)
(-0 -0 -1.43707e-09)
(-0 -0 -1.43707e-09)
(-0 2.50615e-26 -1.43707e-09)
(-0 2.50615e-26 -1.43707e-09)
(-0 -0 -1.43707e-09)
(-0 -0 -1.43707e-09)
(-0 -2.50615e-26 -1.43707e-09)
(-0 -2.50615e-26 -1.43707e-09)
(-0 -0 -1.43707e-09)
(-0 -0 -1.43707e-09)
(-0 -0 -1.43707e-09)
(-0 -0 -1.43707e-09)
(-0 2.50615e-26 -1.43707e-09)
(-0 2.50615e-26 -1.43707e-09)
(-2.50615e-26 -2.50615e-26 -1.43707e-09)
(-8.73332e-73 -8.73332e-73 -1.43707e-09)
(2.50615e-26 2.50615e-26 -1.43707e-09)
(-0 -0 -1.43707e-09)
(-0 -0 -1.43707e-09)
(-0 -0 -1.43707e-09)
(-0 -2.50615e-26 -1.43707e-09)
(-2.50615e-26 -2.50615e-26 -1.43707e-09)
(-0 -0 -1.43707e-09)
(2.50615e-26 -0 -1.43707e-09)
(2.50615e-26 2.50615e-26 -1.43707e-09)
(-2.78098e-39 -2.78098e-39 -1.43707e-09)
(-5.01231e-26 -5.01231e-26 -1.43707e-09)
(4.42832e-42 4.42832e-42 -1.43707e-09)
(5.01231e-26 5.01231e-26 -1.43707e-09)
(2.18333e-73 2.50615e-26 -1.43707e-09)
(-2.50615e-26 -0 -1.43707e-09)
(-0 -0 -1.43707e-09)
(-0 -2.50615e-26 -1.43707e-09)
(-0 -2.50615e-26 -1.43707e-09)
(-0 -0 -1.43707e-09)
(-0 -0 -1.43707e-09)
(-0 -0 -1.43707e-09)
(-0 -0 -1.43707e-09)
(-0 -0 -1.43707e-09)
(-0 -0 -1.43707e-09)
(-0 2.50615e-26 -1.43707e-09)
(-0 2.50615e-26 -1.43707e-09)
(-0 -0 -1.43707e-09)
(-0 -0 -1.43707e-09)
(-0 -2.50615e-26 -1.43707e-09)
(-0 -2.50615e-26 -1.43707e-09)
(-0 -0 -1.43707e-09)
(-0 -0 -1.43707e-09)
(-2.50615e-26 -2.50615e-26 -1.43707e-09)
(4.42832e-42 2.50615e-26 -1.43707e-09)
(2.50615e-26 2.50615e-26 -1.43707e-09)
(-0 -2.50615e-26 -1.43707e-09)
(-0 -0 -1.43707e-09)
(-0 -0 -1.43707e-09)
(-0 2.50615e-26 -1.43707e-09)
(-0 2.50615e-26 -1.43707e-09)
(-0 -2.50615e-26 -1.43707e-09)
(-0 -2.50615e-26 -1.43707e-09)
(-0 2.50615e-26 -1.43707e-09)
(-0 2.50615e-26 -1.43707e-09)
(-0 -2.50615e-26 -1.43707e-09)
(-0 -2.50615e-26 -1.43707e-09)
(-0 2.50615e-26 -1.43707e-09)
(-0 -0 -1.43707e-09)
(-2.50615e-26 -2.50615e-26 -1.43707e-09)
(2.78098e-39 -0 -1.43707e-09)
(2.50615e-26 2.50615e-26 -1.43707e-09)
(-0 2.50615e-26 -1.43707e-09)
(-0 -2.50615e-26 -1.43707e-09)
(-0 -2.50615e-26 -1.43707e-09)
(-0 2.50615e-26 -1.43707e-09)
(-0 -5.5664e-39 -1.43707e-09)
(-0 -2.50615e-26 -1.43707e-09)
(-0 -0 -1.43707e-09)
(-0 -0 -1.43707e-09)
(-0 -0 -1.43707e-09)
(-0 -0 -1.43707e-09)
(-0 -0 -1.43707e-09)
(-0 -0 -1.43707e-09)
(-0 2.50615e-26 -1.43707e-09)
(-0 8.34295e-39 -1.43707e-09)
(-0 -2.50615e-26 -1.43707e-09)
(-0 2.50615e-26 -1.43707e-09)
(-0 2.50615e-26 -1.43707e-09)
(-2.50615e-26 -2.50615e-26 -1.43707e-09)
(-2.78984e-39 -2.78984e-39 -1.43707e-09)
(2.50615e-26 -1.11284e-38 -1.43707e-09)
(-0 -2.50615e-26 -1.43707e-09)
(-0 -0 -1.43707e-09)
(-0 -0 -1.43707e-09)
(-0 2.50615e-26 -1.43707e-09)
(-0 2.50615e-26 -1.43707e-09)
(-0 -2.50615e-26 -1.43707e-09)
(-2.50615e-26 -2.50615e-26 -1.43707e-09)
(2.78541e-39 -0 -1.43707e-09)
(2.50615e-26 -0 -1.43707e-09)
(-0 -0 -1.43707e-09)
(-0 -0 -1.43707e-09)
(-0 -0 -1.43707e-09)
(-0 -0 -1.43707e-09)
(-2.50615e-26 -0 -1.43707e-09)
(-2.50615e-26 -0 -1.43707e-09)
(2.50615e-26 -0 -1.43707e-09)
(2.50615e-26 2.50615e-26 -1.43707e-09)
(-0 -0 -1.43707e-09)
(-0 -2.50615e-26 -1.43707e-09)
(-0 -0 -1.43707e-09)
(-0 2.50615e-26 -1.43707e-09)
(-0 2.78098e-39 -1.43707e-09)
(-0 2.78098e-39 -1.43707e-09)
(-0 -5.5664e-39 -1.43707e-09)
(-0 -2.50615e-26 -1.43707e-09)
(-0 2.50615e-26 -1.43707e-09)
(-2.50615e-26 -2.18333e-73 -1.43707e-09)
(-2.77656e-39 -2.77656e-39 -1.43707e-09)
(2.50615e-26 -2.18333e-73 -1.43707e-09)
(-0 -5.5664e-39 -1.43707e-09)
(-0 5.5664e-39 -1.43707e-09)
(-0 -2.50615e-26 -1.43707e-09)
(-0 -0 -1.43707e-09)
(-0 2.50615e-26 -1.43707e-09)
(-0 5.56197e-39 -1.43707e-09)
(-0 -0 -1.43707e-09)
(-0 2.78098e-39 -1.43707e-09)
(-0 -2.50615e-26 -1.43707e-09)
(2.50615e-26 2.50615e-26 -1.43707e-09)
(-2.78098e-39 -2.78098e-39 -1.43707e-09)
(-5.01231e-26 -5.01231e-26 -1.43707e-09)
(-5.56197e-39 2.50615e-26 -1.43707e-09)
(5.01231e-26 5.01231e-26 -1.43707e-09)
(2.77656e-39 -0 -1.43707e-09)
(-5.01231e-26 -2.50615e-26 -1.43707e-09)
(1.74666e-72 1.74666e-72 -1.43707e-09)
(2.50615e-26 2.78098e-39 -1.43707e-09)
(-0 -2.50615e-26 -1.43707e-09)
(-0 -0 -1.43707e-09)
(-0 -0 -1.43707e-09)
(-0 -0 -1.43707e-09)
(-0 -0 -1.43707e-09)
(-0 -0 -1.43707e-09)
(-0 -0 -1.43707e-09)
(-2.50615e-26 -0 -1.43707e-09)
(-5.55754e-39 -0 -1.43707e-09)
(2.50615e-26 -0 -1.43707e-09)
(-0 -0 -1.43707e-09)
(-0 -0 -1.43707e-09)
(-0 -0 -1.43707e-09)
(-0 -0 -1.43707e-09)
(-0 -0 -1.43707e-09)
(-0 -0 -1.43707e-09)
(-2.50615e-26 -0 -1.43707e-09)
(-2.50615e-26 -0 -1.43707e-09)
(2.50615e-26 2.50615e-26 -1.43707e-09)
(2.50615e-26 -2.18333e-73 -1.43707e-09)
(-0 -2.50615e-26 -1.43707e-09)
(-0 -0 -1.43707e-09)
(-0 2.50615e-26 -1.43707e-09)
(-0 -0 -1.43707e-09)
(-0 -2.50615e-26 -1.43707e-09)
(-0 -0 -1.43707e-09)
(-2.50615e-26 -0 -1.43707e-09)
(-4.42832e-42 -0 -1.43707e-09)
(2.50615e-26 -0 -1.43707e-09)
(-0 -0 -1.43707e-09)
(-0 -0 -1.43707e-09)
(2.50615e-26 2.50615e-26 -1.43707e-09)
(-0 -0 -1.43707e-09)
(-5.01231e-26 -5.01231e-26 -1.43707e-09)
(2.78098e-39 2.50615e-26 -1.43707e-09)
(2.78098e-39 2.50615e-26 -1.43707e-09)
(-0 -0 -1.43707e-09)
(2.50615e-26 -5.57082e-39 -1.43707e-09)
(-0 -2.50615e-26 -1.43707e-09)
(-0 -2.50615e-26 -1.43707e-09)
(-0 8.34295e-39 -1.43707e-09)
(-0 2.50615e-26 -1.43707e-09)
(-0 -0 -1.43707e-09)
(-0 -0 -1.43707e-09)
(-0 -0 -1.43707e-09)
(-0 -0 -1.43707e-09)
(-0 2.50615e-26 -1.43707e-09)
(-0 2.78098e-39 -1.43707e-09)
(-0 -2.50615e-26 -1.43707e-09)
(-0 2.50615e-26 -1.43707e-09)
(-0 2.50615e-26 -1.43707e-09)
(-0 -2.50615e-26 -1.43707e-09)
(-0 -2.50615e-26 -1.43707e-09)
(-0 -0 -1.43707e-09)
(-0 -0 -1.43707e-09)
(-0 -0 -1.43707e-09)
(-0 -0 -1.43707e-09)
(-0 -0 -1.43707e-09)
(-2.50615e-26 -0 -1.43707e-09)
(5.56197e-39 -0 -1.43707e-09)
(2.50615e-26 -0 -1.43707e-09)
(-0 -0 -1.43707e-09)
(-0 -0 -1.43707e-09)
(-0 -0 -1.43707e-09)
(-0 -0 -1.43707e-09)
(-0 -0 -1.43707e-09)
(-0 -0 -1.43707e-09)
(-2.50615e-26 -0 -1.43707e-09)
(-2.50615e-26 -0 -1.43707e-09)
(2.50615e-26 -0 -1.43707e-09)
(2.50615e-26 -0 -1.43707e-09)
(-0 -0 -1.43707e-09)
(-0 -0 -1.43707e-09)
(-0 -0 -1.43707e-09)
(-0 2.50615e-26 -1.43707e-09)
(-0 2.50615e-26 -1.43707e-09)
(-0 -2.50615e-26 -1.43707e-09)
(-0 -2.50615e-26 -1.43707e-09)
(-0 2.50615e-26 -1.43707e-09)
(-0 -1.3285e-41 -1.43707e-09)
(-0 -2.50615e-26 -1.43707e-09)
(-0 -0 -1.43707e-09)
(-0 -0 -1.43707e-09)
(-0 -0 -1.43707e-09)
(-0 -0 -1.43707e-09)
(-0 -0 -1.43707e-09)
(-0 -0 -1.43707e-09)
(-0 -0 -1.43707e-09)
(-0 -0 -1.43707e-09)
(-0 -0 -1.43707e-09)
(-0 -0 -1.43707e-09)
(-0 2.50615e-26 -1.43707e-09)
(-0 4.42832e-42 -1.43707e-09)
(-0 -2.50615e-26 -1.43707e-09)
(-0 -0 -1.43707e-09)
(-0 -0 -1.43707e-09)
(-0 -0 -1.43707e-09)
(-0 -0 -1.43707e-09)
(-0 -0 -1.43707e-09)
(-0 2.50615e-26 -1.43707e-09)
(-0 -5.56197e-39 -1.43707e-09)
(-0 -2.50615e-26 -1.43707e-09)
(-0 -0 -1.43707e-09)
(-2.50615e-26 -0 -1.43707e-09)
(1.3285e-41 -0 -1.43707e-09)
(2.50615e-26 -0 -1.43707e-09)
(-0 -0 -1.43707e-09)
(-0 -0 -1.43707e-09)
(-0 -0 -1.43707e-09)
(-0 -0 -1.43707e-09)
(-0 -0 -1.43707e-09)
(-0 2.50615e-26 -1.43707e-09)
(-0 5.5664e-39 -1.43707e-09)
(-0 -2.50615e-26 -1.43707e-09)
(-0 -0 -1.43707e-09)
(-0 -0 -1.43707e-09)
(-0 -0 -1.43707e-09)
(-0 -0 -1.43707e-09)
(-0 -0 -1.43707e-09)
(-0 -0 -1.43707e-09)
(-0 -0 -1.43707e-09)
(-0 -0 -1.43707e-09)
(-0 2.50615e-26 -1.43707e-09)
(-0 2.50615e-26 -1.43707e-09)
(-0 -2.50615e-26 -1.43707e-09)
(-0 -2.50615e-26 -1.43707e-09)
(-0 -0 -1.43707e-09)
(-0 -0 -1.43707e-09)
(-0 -0 -1.43707e-09)
(-0 -0 -1.43707e-09)
(-0 2.50615e-26 -1.43707e-09)
(-0 -5.57082e-39 -1.43707e-09)
(-0 -2.50615e-26 -1.43707e-09)
(2.50615e-26 2.50615e-26 -1.43707e-09)
(-1.66948e-38 -1.66948e-38 -1.43707e-09)
(-2.50615e-26 -2.50615e-26 -1.43707e-09)
(-0 2.50615e-26 -1.43707e-09)
(-0 -1.11284e-38 -1.43707e-09)
(-0 -2.50615e-26 -1.43707e-09)
(-0 2.50615e-26 -1.43707e-09)
(-0 -0 -1.43707e-09)
(-0 -2.50615e-26 -1.43707e-09)
(-0 -0 -1.43707e-09)
(-0 2.50615e-26 -1.43707e-09)
(-0 2.50615e-26 -1.43707e-09)
(-0 -2.50615e-26 -1.43707e-09)
(-0 -2.50615e-26 -1.43707e-09)
(-0 -0 -1.43707e-09)
(-2.50615e-26 -0 -1.43707e-09)
(-5.5664e-39 -0 -1.43707e-09)
(2.50615e-26 2.50615e-26 -1.43707e-09)
(-0 5.57082e-39 -1.43707e-09)
(-0 -2.50615e-26 -1.43707e-09)
(-0 -0 -1.43707e-09)
(-0 -0 -1.43707e-09)
(-0 -0 -1.43707e-09)
(-0 -0 -1.43707e-09)
(-0 -0 -1.43707e-09)
(-0 -0 -1.43707e-09)
(-0 -0 -1.43707e-09)
(-0 -0 -1.43707e-09)
(-0 -0 -1.43707e-09)
(-0 -0 -1.43707e-09)
(-0 -0 -1.43707e-09)
(-0 2.50615e-26 -1.43707e-09)
(-0 -4.42832e-42 -1.43707e-09)
(-0 -2.50615e-26 -1.43707e-09)
(-0 -0 -1.43707e-09)
(-0 2.50615e-26 -1.43707e-09)
(-0 5.57082e-39 -1.43707e-09)
(-0 -2.50615e-26 -1.43707e-09)
(-0 -0 -1.43707e-09)
)
;

boundaryField
{
    top
    {
        type            calculated;
        value           uniform (-0 -0 -0.191327);
    }
    left
    {
        type            empty;
    }
    right
    {
        type            empty;
    }
    front
    {
        type            empty;
    }
    back
    {
        type            empty;
    }
    bottom
    {
        type            calculated;
        value           uniform (2.50615e-26 5.01231e-26 -1.43707e-09);
    }
}


// ************************************************************************* //
