/*--------------------------------*- C++ -*----------------------------------*\
  =========                 |
  \\      /  F ield         | OpenFOAM: The Open Source CFD Toolbox
   \\    /   O peration     | Website:  https://openfoam.org
    \\  /    A nd           | Version:  7
     \\/     M anipulation  |
\*---------------------------------------------------------------------------*/
FoamFile
{
    version     2.0;
    format      ascii;
    class       volVectorField;
    location    "0.000";
    object      U;
}
// * * * * * * * * * * * * * * * * * * * * * * * * * * * * * * * * * * * * * //

dimensions      [0 1 -1 0 0 0 0];

internalField   nonuniform List<vector> 
200
(
(1.61756e-22 1.61756e-22 -5.82788e-06)
(1.61756e-22 1.61756e-22 -5.82788e-06)
(-1.61756e-22 -0 -5.82788e-06)
(-8.44052e-37 -1.61756e-22 -5.82788e-06)
(1.61756e-22 -1.61756e-22 -5.82788e-06)
(1.61756e-22 1.61756e-22 -5.82788e-06)
(-4.31005e-37 1.61756e-22 -5.82788e-06)
(-1.61756e-22 -0 -5.82788e-06)
(1.61756e-22 -0 -5.82788e-06)
(-1.61756e-22 -1.61756e-22 -5.82788e-06)
(-3.23512e-22 -1.61756e-22 -5.82788e-06)
(3.23512e-22 3.23512e-22 -5.82788e-06)
(3.23512e-22 3.23512e-22 -5.82788e-06)
(-4.85269e-22 -4.85269e-22 -5.82788e-06)
(-0 -0 -5.82788e-06)
(4.85269e-22 3.23512e-22 -5.82788e-06)
(-3.23512e-22 -3.23512e-22 -5.82788e-06)
(3.59171e-38 1.79585e-38 -5.82788e-06)
(1.61756e-22 1.61756e-22 -5.82788e-06)
(2.69378e-36 3.23512e-22 -5.82788e-06)
(1.61756e-22 -3.59171e-38 -5.82788e-06)
(-0 -3.23512e-22 -5.82788e-06)
(-4.85269e-22 -1.61756e-22 -5.82788e-06)
(-1.07033e-35 1.61756e-22 -5.82788e-06)
(6.47025e-22 3.23512e-22 -5.82788e-06)
(-3.23512e-22 -1.61756e-22 -5.82788e-06)
(-4.85269e-22 -3.23512e-22 -5.82788e-06)
(4.85269e-22 1.61756e-22 -5.82788e-06)
(-1.07751e-35 1.61756e-22 -5.82788e-06)
(-4.85269e-22 -3.23512e-22 -5.82788e-06)
(-0 -1.79585e-38 -5.82788e-06)
(-0 -1.81381e-36 -5.82788e-06)
(3.23512e-22 -1.81381e-36 -5.82788e-06)
(1.61756e-22 1.61756e-22 -5.82788e-06)
(-1.81381e-36 1.61756e-22 -5.82788e-06)
(-1.61756e-22 -1.79585e-38 -5.82788e-06)
(-3.23512e-22 -3.23512e-22 -5.82788e-06)
(4.85269e-22 1.61756e-22 -5.82788e-06)
(3.23512e-22 1.61756e-22 -5.82788e-06)
(-1.79585e-36 -1.79585e-36 -5.82788e-06)
(-3.23512e-22 -1.41668e-68 -5.82788e-06)
(-3.23512e-22 -1.61756e-22 -5.82788e-06)
(-1.81381e-36 -0 -5.82788e-06)
(-0 -0 -5.82788e-06)
(3.23512e-22 -0 -5.82788e-06)
(-1.79585e-36 -1.61756e-22 -5.82788e-06)
(-1.81381e-36 -1.81381e-36 -5.82788e-06)
(-1.61756e-22 -1.79585e-38 -5.82788e-06)
(-7.21934e-36 -3.60967e-36 -5.82788e-06)
(-3.62763e-36 -1.61756e-22 -5.82788e-06)
(-3.23512e-22 -1.61756e-22 -5.82788e-06)
(3.23512e-22 4.85269e-22 -5.82788e-06)
(2.83336e-68 -1.61756e-22 -5.82788e-06)
(-7.21934e-36 -1.07751e-35 -5.82788e-06)
(7.18342e-36 1.61756e-22 -5.82788e-06)
(-3.23512e-22 -1.61756e-22 -5.82788e-06)
(3.23512e-22 1.61756e-22 -5.82788e-06)
(3.23512e-22 -0 -5.82788e-06)
(-0 1.61756e-22 -5.82788e-06)
(-0 1.61756e-22 -5.82788e-06)
(-0 -1.61756e-22 -5.82788e-06)
(-0 -1.61756e-22 -5.82788e-06)
(-0 1.61756e-22 -5.82788e-06)
(-3.23512e-22 -1.61756e-22 -5.82788e-06)
(-3.23512e-22 -4.85269e-22 -5.82788e-06)
(3.23512e-22 1.61756e-22 -5.82788e-06)
(7.1475e-36 1.61756e-22 -5.82788e-06)
(-3.23512e-22 -0 -5.82788e-06)
(-0 -1.61756e-22 -5.82788e-06)
(-1.61756e-22 -1.61756e-22 -5.82788e-06)
(-7.16546e-36 1.61756e-22 -5.82788e-06)
(1.61756e-22 -0 -5.82788e-06)
(-0 -1.61756e-22 -5.82788e-06)
(-1.61756e-22 1.32814e-69 -5.82788e-06)
(1.61756e-22 1.61756e-22 -5.82788e-06)
(4.85269e-22 3.23512e-22 -5.82788e-06)
(-1.61756e-22 -1.43668e-35 -5.82788e-06)
(-3.23512e-22 -1.61756e-22 -5.82788e-06)
(-0 -3.57375e-36 -5.82788e-06)
(-0 -1.61756e-22 -5.82788e-06)
(-0 -0 -5.82788e-06)
(1.61756e-22 1.61756e-22 -5.82788e-06)
(3.23512e-22 3.23512e-22 -5.82788e-06)
(1.43848e-35 1.43848e-35 -5.82788e-06)
(-3.23512e-22 -3.23512e-22 -5.82788e-06)
(-1.61756e-22 -1.61756e-22 -5.82788e-06)
(3.23512e-22 1.61756e-22 -5.82788e-06)
(7.25525e-36 3.62763e-36 -5.82788e-06)
(-1.61756e-22 -3.55579e-36 -5.82788e-06)
(3.23512e-22 1.61756e-22 -5.82788e-06)
(-1.61756e-22 -1.61756e-22 -5.82788e-06)
(-2.14784e-35 1.61756e-22 -5.82788e-06)
(7.18342e-36 1.61756e-22 -5.82788e-06)
(-3.23512e-22 -3.23512e-22 -5.82788e-06)
(-0 -1.07572e-35 -5.82788e-06)
(-0 1.79585e-38 -5.82788e-06)
(3.23512e-22 -7.20138e-36 -5.82788e-06)
(-7.18342e-36 -1.61756e-22 -5.82788e-06)
(-3.23512e-22 -1.61756e-22 -5.82788e-06)
(-0 1.61756e-22 -5.82788e-06)
(-1.61756e-22 -0 -5.82788e-06)
(3.23512e-22 3.23512e-22 -5.82788e-06)
(1.61756e-22 2.87337e-35 -5.82788e-06)
(-3.23512e-22 -3.23512e-22 -5.82788e-06)
(-1.61756e-22 -0 -5.82788e-06)
(1.61756e-22 1.61756e-22 -5.82788e-06)
(1.61756e-22 1.79585e-38 -5.82788e-06)
(-1.61756e-22 -1.61756e-22 -5.82788e-06)
(-1.61756e-22 -0 -5.82788e-06)
(3.23512e-22 1.61756e-22 -5.82788e-06)
(7.18342e-38 1.79585e-38 -5.82788e-06)
(-3.23512e-22 -1.61756e-22 -5.82788e-06)
(3.23512e-22 1.61756e-22 -5.82788e-06)
(-1.61756e-22 -7.16546e-36 -5.82788e-06)
(-1.61756e-22 -1.61756e-22 -5.82788e-06)
(7.16546e-36 -0 -5.82788e-06)
(1.61756e-22 1.61756e-22 -5.82788e-06)
(-0 -0 -5.82788e-06)
(1.43309e-35 7.16546e-36 -5.82788e-06)
(3.59171e-38 1.79585e-38 -5.82788e-06)
(-1.43309e-35 -7.16546e-36 -5.82788e-06)
(-1.43309e-35 -7.16546e-36 -5.82788e-06)
(-1.61756e-22 -1.61756e-22 -5.82788e-06)
(1.61756e-22 -0 -5.82788e-06)
(-0 -0 -5.82788e-06)
(-1.61756e-22 -0 -5.82788e-06)
(1.61756e-22 1.61756e-22 -5.82788e-06)
(1.61756e-22 1.79585e-38 -5.82788e-06)
(-1.43489e-35 -1.43489e-35 -5.82788e-06)
(-7.18342e-36 -7.18342e-36 -5.82788e-06)
(-1.61756e-22 -1.61756e-22 -5.82788e-06)
(-1.61756e-22 -0 -5.82788e-06)
(1.61756e-22 1.61756e-22 -5.82788e-06)
(1.61756e-22 -7.18342e-36 -5.82788e-06)
(-1.61756e-22 -0 -5.82788e-06)
(-1.61756e-22 -7.16546e-36 -5.82788e-06)
(1.43668e-35 -1.61756e-22 -5.82788e-06)
(3.23512e-22 1.61756e-22 -5.82788e-06)
(-2.15503e-35 1.61756e-22 -5.82788e-06)
(-1.43668e-35 -0 -5.82788e-06)
(-7.18342e-36 -1.61756e-22 -5.82788e-06)
(-1.61756e-22 -1.61756e-22 -5.82788e-06)
(-0 -0 -5.82788e-06)
(1.61756e-22 1.61756e-22 -5.82788e-06)
(-1.61756e-22 1.79585e-38 -5.82788e-06)
(-1.61756e-22 -1.43489e-35 -5.82788e-06)
(3.23512e-22 1.61756e-22 -5.82788e-06)
(1.61756e-22 -0 -5.82788e-06)
(-3.23512e-22 -1.61756e-22 -5.82788e-06)
(-0 -0 -5.82788e-06)
(1.61756e-22 1.79585e-38 -5.82788e-06)
(-1.61756e-22 -0 -5.82788e-06)
(-1.61756e-22 7.18342e-36 -5.82788e-06)
(1.61756e-22 -7.18342e-36 -5.82788e-06)
(4.85269e-22 3.23512e-22 -5.82788e-06)
(7.18342e-36 7.18342e-36 -5.82788e-06)
(-3.23512e-22 -3.23512e-22 -5.82788e-06)
(-1.61756e-22 -1.61756e-22 -5.82788e-06)
(-1.61756e-22 -0 -5.82788e-06)
(-1.43668e-35 -0 -5.82788e-06)
(1.61756e-22 -0 -5.82788e-06)
(-0 1.61756e-22 -5.82788e-06)
(1.61756e-22 1.61756e-22 -5.82788e-06)
(1.79585e-38 -0 -5.82788e-06)
(-7.18342e-36 -0 -5.82788e-06)
(-8.85425e-70 -1.61756e-22 -5.82788e-06)
(-1.61756e-22 -1.61756e-22 -5.82788e-06)
(-0 -0 -5.82788e-06)
(3.23512e-22 3.23512e-22 -5.82788e-06)
(-1.61756e-22 -1.4295e-35 -5.82788e-06)
(-1.61756e-22 -1.61756e-22 -5.82788e-06)
(4.85269e-22 3.23512e-22 -5.82788e-06)
(7.18342e-36 -1.61756e-22 -5.82788e-06)
(-3.23512e-22 -3.23512e-22 -5.82788e-06)
(-1.61756e-22 -0 -5.82788e-06)
(-1.61756e-22 -0 -5.82788e-06)
(7.16546e-36 -0 -5.82788e-06)
(1.61756e-22 -0 -5.82788e-06)
(-0 -0 -5.82788e-06)
(3.23512e-22 1.61756e-22 -5.82788e-06)
(3.23512e-22 3.23512e-22 -5.82788e-06)
(-4.85269e-22 -1.61756e-22 -5.82788e-06)
(-3.23512e-22 -1.61756e-22 -5.82788e-06)
(-7.16546e-36 -7.16546e-36 -5.82788e-06)
(3.23512e-22 1.61756e-22 -5.82788e-06)
(1.61756e-22 -3.59171e-38 -5.82788e-06)
(-3.23512e-22 -3.23512e-22 -5.82788e-06)
(-0 -0 -5.82788e-06)
(1.61756e-22 1.61756e-22 -5.82788e-06)
(1.79585e-38 1.61756e-22 -5.82788e-06)
(-3.23512e-22 -1.61756e-22 -5.82788e-06)
(1.61756e-22 -2.87157e-35 -5.82788e-06)
(1.61756e-22 -1.61756e-22 -5.82788e-06)
(-1.61756e-22 -1.61756e-22 -5.82788e-06)
(-1.61756e-22 1.61756e-22 -5.82788e-06)
(-0 1.61756e-22 -5.82788e-06)
(3.23512e-22 1.61756e-22 -5.82788e-06)
(1.61756e-22 -0 -5.82788e-06)
(-3.23512e-22 -1.61756e-22 -5.82788e-06)
(-3.23512e-22 -1.61756e-22 -5.82788e-06)
)
;

boundaryField
{
    top
    {
        type            calculated;
        value           uniform (-3.23512e-22 -1.61756e-22 -5.82788e-06);
    }
    left
    {
        type            empty;
    }
    right
    {
        type            empty;
    }
    front
    {
        type            empty;
    }
    back
    {
        type            empty;
    }
    bottom
    {
        type            calculated;
        value           uniform (1.61756e-22 1.61756e-22 -5.82788e-06);
    }
}


// ************************************************************************* //
