/*--------------------------------*- C++ -*----------------------------------*\
  =========                 |
  \\      /  F ield         | OpenFOAM: The Open Source CFD Toolbox
   \\    /   O peration     | Website:  https://openfoam.org
    \\  /    A nd           | Version:  7
     \\/     M anipulation  |
\*---------------------------------------------------------------------------*/
FoamFile
{
    version     2.0;
    format      ascii;
    class       volScalarField;
    location    "0.000";
    object      DOC;
}
// * * * * * * * * * * * * * * * * * * * * * * * * * * * * * * * * * * * * * //

dimensions      [ 1 -3 0 0 0 0 0 ];

/*
    Rosenzweig (2011):

    ♦ Pumped a 1:75 dilution of nutrient broth. 
        Assume that nutrient broth has the same composition as domestic 
        wastewater C10H19O3N (Table 5.4 - Rittmann 2nd edition, 2022)

        1/4 O2 + 1/50 C10H19O3N = 9/50 CO2 + 1/50 HCO3- + 1/50 NH4+ + 7/50 H20

        Thus, the COD of nutrient broth is: 
        
        1/4 mol O2 ::: 1/50 mol Broth
            8 g O2  :: 4 g Broth 
            1 g O2  :: 0.5 g Broth 

        Nutrient broth is made combining 10g tryptone and 5g yeast extract in 
        a liter of water. Hence, nutrient broth is 15g C10H19O3N / L. If the solution
        was diluted to a 1:75 ratio, the concentration was 197 mg C10H19O3N / L. 

        The COD of that broth concentration is 394 mg COD/L = 0.394 g/m³.

    ♦ Or, use the glucose measurement at the influent from that Excel data
        which was around 20mg[glucose]/L. 

        1/4 O2 + 1/24 C6H12O6 = 1/4 CO2 + nH2O

        Thus, the COD of influent sugar is: 
        
        1/4 mol O2 ::: 1/24 mol Glucose
            8 g O2  :: 7.5 g Glucose 
            1 g O2  :: 1.2 g Glucose 
        
        So the COD of the influent was 20mg[glucose]/L = 16.7mg[COD]/L
*/

internalField   uniform 0; //0.0167;

boundaryField
{
    front
    {
        type            empty;
    }
    back
    {
        type            empty;
    }
    right
    {
        type            empty;
    }
    left
    {
        type            empty;
    }
    top
    {
        // type                uniformInletOutlet;
        // uniformInletValue   constant 0.0167;
        // phi                 phi;
        
        type                    uniformInletOutlet;
        uniformInletValue       sine;
        frequency               5.787E-6;
        amplitude               0.0167;
        scale                   1.0;
        level                   0.0167;
        phi                     phi;
        value                   0;

    }
    bottom
    {
        type            zeroGradient;
    }
}


// ************************************************************************* //
