/*--------------------------------*- C++ -*----------------------------------*\
  =========                 |
  \\      /  F ield         | OpenFOAM: The Open Source CFD Toolbox
   \\    /   O peration     | Website:  https://openfoam.org
    \\  /    A nd           | Version:  7
     \\/     M anipulation  |
\*---------------------------------------------------------------------------*/
FoamFile
{
    version     2.0;
    format      ascii;
    class       volVectorField;
    location    "0.000";
    object      U;
}
// * * * * * * * * * * * * * * * * * * * * * * * * * * * * * * * * * * * * * //

dimensions      [0 1 -1 0 0 0 0];

internalField   nonuniform List<vector> 
248
(
(-1.83586e-21 -1.83586e-21 -0.0002067)
(1.83586e-21 1.83586e-21 -0.0002067)
(3.67173e-21 1.83586e-21 -0.0002067)
(-0 -1.83586e-21 -0.0002067)
(-1.83586e-21 -0 -0.0002067)
(1.83586e-21 1.83586e-21 -0.0002067)
(3.67173e-21 -1.83586e-21 -0.0002067)
(-1.83586e-21 -1.83586e-21 -0.0002067)
(-1.49682e-35 3.67173e-21 -0.0002067)
(-3.67173e-21 -3.67173e-21 -0.0002067)
(-5.50759e-21 -3.67173e-21 -0.0002067)
(5.50759e-21 5.50759e-21 -0.0002067)
(5.50759e-21 3.67173e-21 -0.0002067)
(-3.67173e-21 -3.67173e-21 -0.0002067)
(1.83586e-21 -1.83586e-21 -0.0002067)
(5.50759e-21 1.83586e-21 -0.0002067)
(-3.67173e-21 -1.83586e-21 -0.0002067)
(-4.07644e-35 -2.03822e-35 -0.0002067)
(1.83586e-21 3.67173e-21 -0.0002067)
(-3.67173e-21 -2.03822e-35 -0.0002067)
(2.03822e-35 2.03822e-35 -0.0002067)
(1.83586e-21 1.83586e-21 -0.0002067)
(-1.83586e-21 -1.83586e-21 -0.0002067)
(1.01911e-35 1.01911e-35 -0.0002067)
(3.67173e-21 3.67173e-21 -0.0002067)
(-1.05096e-35 -1.05096e-35 -0.0002067)
(-1.83586e-21 -1.83586e-21 -0.0002067)
(-0 -0 -0.0002067)
(-0 -0 -0.0002067)
(-0 -0 -0.0002067)
(-0 -0 -0.0002067)
(-0 -0 -0.0002067)
(-0 -0 -0.0002067)
(-0 -0 -0.0002067)
(-0 -0 -0.0002067)
(-1.83586e-21 -1.83586e-21 -0.0002067)
(-1.83586e-21 -1.83586e-21 -0.0002067)
(1.83586e-21 1.83586e-21 -0.0002067)
(-2.03822e-35 -2.03822e-35 -0.0002067)
(-1.83586e-21 -1.83586e-21 -0.0002067)
(3.67173e-21 1.83586e-21 -0.0002067)
(1.83586e-21 1.83586e-21 -0.0002067)
(-1.83586e-21 -0 -0.0002067)
(1.83586e-21 -0 -0.0002067)
(-6.36944e-37 -0 -0.0002067)
(-3.67173e-21 -1.83586e-21 -0.0002067)
(4.07644e-35 4.07644e-35 -0.0002067)
(1.83586e-21 1.83586e-21 -0.0002067)
(-0 -0 -0.0002067)
(-0 -0 -0.0002067)
(1.83586e-21 1.83586e-21 -0.0002067)
(4.07644e-35 4.07644e-35 -0.0002067)
(-3.67173e-21 -3.67173e-21 -0.0002067)
(-1.83586e-21 -1.83586e-21 -0.0002067)
(1.83586e-21 -1.83586e-21 -0.0002067)
(1.83586e-21 1.83586e-21 -0.0002067)
(-1.83586e-21 1.83586e-21 -0.0002067)
(-1.83586e-21 -1.83586e-21 -0.0002067)
(1.83586e-21 1.83586e-21 -0.0002067)
(4.07644e-35 4.07644e-35 -0.0002067)
(-8.15288e-35 -8.15288e-35 -0.0002067)
(-0 -0 -0.0002067)
(-4.07644e-35 -4.07644e-35 -0.0002067)
(-4.04459e-35 -4.04459e-35 -0.0002067)
(-1.83586e-21 -1.83586e-21 -0.0002067)
(1.83586e-21 1.83586e-21 -0.0002067)
(3.67173e-21 3.67173e-21 -0.0002067)
(3.18472e-37 3.18472e-37 -0.0002067)
(-1.83586e-21 -1.83586e-21 -0.0002067)
(-1.83586e-21 -3.67173e-21 -0.0002067)
(-1.83586e-21 -1.83586e-21 -0.0002067)
(1.83586e-21 1.83586e-21 -0.0002067)
(1.83586e-21 1.83586e-21 -0.0002067)
(-1.83586e-21 8.15288e-35 -0.0002067)
(-8.15288e-35 -3.67173e-21 -0.0002067)
(1.83586e-21 -3.18472e-37 -0.0002067)
(-1.83586e-21 1.83586e-21 -0.0002067)
(-3.67173e-21 -1.83586e-21 -0.0002067)
(4.07644e-35 4.07644e-35 -0.0002067)
(3.67173e-21 3.67173e-21 -0.0002067)
(1.83586e-21 1.83586e-21 -0.0002067)
(-0 -0 -0.0002067)
(-0 -0 -0.0002067)
(-1.83586e-21 -1.83586e-21 -0.0002067)
(-1.83586e-21 -1.83586e-21 -0.0002067)
(-0 -0 -0.0002067)
(-0 -0 -0.0002067)
(3.67173e-21 3.67173e-21 -0.0002067)
(1.63058e-34 1.63058e-34 -0.0002067)
(-3.67173e-21 -3.67173e-21 -0.0002067)
(1.83586e-21 1.83586e-21 -0.0002067)
(3.67173e-21 3.67173e-21 -0.0002067)
(-3.67173e-21 -1.83586e-21 -0.0002067)
(-1.83586e-21 -1.83586e-21 -0.0002067)
(1.83586e-21 -1.21656e-34 -0.0002067)
(-8.21657e-35 -3.67173e-21 -0.0002067)
(1.83586e-21 1.83586e-21 -0.0002067)
(-0 3.67173e-21 -0.0002067)
(-1.83586e-21 -1.83586e-21 -0.0002067)
(4.07644e-35 -1.83586e-21 -0.0002067)
(-0 -0 -0.0002067)
(-1.83586e-21 -0 -0.0002067)
(-1.83586e-21 -0 -0.0002067)
(1.83586e-21 -0 -0.0002067)
(1.83586e-21 -0 -0.0002067)
(-1.83586e-21 -0 -0.0002067)
(-1.83586e-21 -1.83586e-21 -0.0002067)
(-2.44586e-34 -2.44586e-34 -0.0002067)
(1.83586e-21 1.83586e-21 -0.0002067)
(-0 -0 -0.0002067)
(-0 -1.83586e-21 -0.0002067)
(-0 -0 -0.0002067)
(1.83586e-21 1.83586e-21 -0.0002067)
(8.08918e-35 -0 -0.0002067)
(-1.83586e-21 -0 -0.0002067)
(-0 -1.83586e-21 -0.0002067)
(1.83586e-21 3.18472e-37 -0.0002067)
(8.15288e-35 1.83586e-21 -0.0002067)
(-1.83586e-21 -0 -0.0002067)
(-1.83586e-21 -1.83586e-21 -0.0002067)
(1.83586e-21 -1.83586e-21 -0.0002067)
(-6.36944e-37 -0 -0.0002067)
(-1.83586e-21 1.83586e-21 -0.0002067)
(-0 1.83586e-21 -0.0002067)
(1.83586e-21 -0 -0.0002067)
(1.83586e-21 -0 -0.0002067)
(-1.83586e-21 -0 -0.0002067)
(-1.83586e-21 -1.83586e-21 -0.0002067)
(1.83586e-21 -1.83586e-21 -0.0002067)
(3.67173e-21 -0 -0.0002067)
(-0 3.67173e-21 -0.0002067)
(-3.67173e-21 3.26752e-34 -0.0002067)
(-0 -1.83586e-21 -0.0002067)
(1.83586e-21 -8.15288e-35 -0.0002067)
(8.15288e-35 8.15288e-35 -0.0002067)
(-1.83586e-21 -8.12103e-35 -0.0002067)
(-1.83586e-21 -1.63058e-34 -0.0002067)
(3.67173e-21 1.83586e-21 -0.0002067)
(1.62739e-34 -1.83586e-21 -0.0002067)
(-1.83586e-21 -8.08918e-35 -0.0002067)
(-1.83586e-21 -3.18472e-37 -0.0002067)
(1.83586e-21 -1.83586e-21 -0.0002067)
(1.83586e-21 1.83586e-21 -0.0002067)
(-8.12103e-35 1.83586e-21 -0.0002067)
(-1.83586e-21 -1.83586e-21 -0.0002067)
(-1.63058e-34 -8.15288e-35 -0.0002067)
(1.83586e-21 -8.15288e-35 -0.0002067)
(-3.67173e-21 -1.83586e-21 -0.0002067)
(-1.62421e-34 -0 -0.0002067)
(3.67173e-21 1.83586e-21 -0.0002067)
(-8.15288e-35 1.83586e-21 -0.0002067)
(-1.83586e-21 -0 -0.0002067)
(-0 -3.67173e-21 -0.0002067)
(1.83586e-21 1.83586e-21 -0.0002067)
(-2.44586e-34 1.83586e-21 -0.0002067)
(-1.83586e-21 -3.67173e-21 -0.0002067)
(-1.83586e-21 -0 -0.0002067)
(1.83586e-21 -0 -0.0002067)
(1.83586e-21 -0 -0.0002067)
(3.18472e-37 1.83586e-21 -0.0002067)
(-1.83586e-21 -1.83586e-21 -0.0002067)
(-1.83586e-21 1.63058e-34 -0.0002067)
(3.67173e-21 5.50759e-21 -0.0002067)
(1.83586e-21 1.62739e-34 -0.0002067)
(-1.83586e-21 -1.83586e-21 -0.0002067)
(-1.83586e-21 -1.83586e-21 -0.0002067)
(-0 3.18472e-37 -0.0002067)
(-0 1.83586e-21 -0.0002067)
(1.83586e-21 -0 -0.0002067)
(-2.44586e-34 -1.83586e-21 -0.0002067)
(-2.44586e-34 1.83586e-21 -0.0002067)
(1.83586e-21 1.83586e-21 -0.0002067)
(-3.67173e-21 -3.67173e-21 -0.0002067)
(-3.67173e-21 -1.62739e-34 -0.0002067)
(1.83586e-21 -2.44586e-34 -0.0002067)
(-3.18472e-37 3.18472e-37 -0.0002067)
(-8.15288e-35 1.83586e-21 -0.0002067)
(3.18472e-37 -1.83586e-21 -0.0002067)
(1.83586e-21 1.83586e-21 -0.0002067)
(1.83586e-21 -6.36944e-37 -0.0002067)
(1.83586e-21 -3.26752e-34 -0.0002067)
(3.26752e-34 3.67173e-21 -0.0002067)
(-1.83586e-21 -0 -0.0002067)
(1.83586e-21 -3.67173e-21 -0.0002067)
(-1.83586e-21 -3.67173e-21 -0.0002067)
(-3.67173e-21 -0 -0.0002067)
(8.15288e-35 1.83586e-21 -0.0002067)
(1.83586e-21 -2.44905e-34 -0.0002067)
(1.83586e-21 3.18472e-37 -0.0002067)
(8.15288e-35 8.15288e-35 -0.0002067)
(-3.67173e-21 -1.62739e-34 -0.0002067)
(8.18472e-35 1.83586e-21 -0.0002067)
(-1.62739e-34 -0 -0.0002067)
(1.83586e-21 -0 -0.0002067)
(1.83586e-21 -1.83586e-21 -0.0002067)
(1.83586e-21 -3.26434e-34 -0.0002067)
(6.36944e-37 3.18472e-37 -0.0002067)
(-1.83586e-21 -1.63058e-34 -0.0002067)
(-1.83586e-21 1.83586e-21 -0.0002067)
(-1.83586e-21 -0 -0.0002067)
(8.15288e-35 -0 -0.0002067)
(-3.26115e-34 -0 -0.0002067)
(1.83586e-21 -1.83586e-21 -0.0002067)
(-0 -1.63058e-34 -0.0002067)
(-3.67173e-21 1.83586e-21 -0.0002067)
(-6.5223e-34 -0 -0.0002067)
(3.67173e-21 -1.83586e-21 -0.0002067)
(-0 -1.63376e-34 -0.0002067)
(-3.67173e-21 -3.25797e-34 -0.0002067)
(6.36944e-37 3.18472e-37 -0.0002067)
(3.67173e-21 -3.25797e-34 -0.0002067)
(-0 -0 -0.0002067)
(-3.67173e-21 1.83586e-21 -0.0002067)
(-3.26115e-34 -0 -0.0002067)
(3.67173e-21 -1.83586e-21 -0.0002067)
(-1.83586e-21 -1.83586e-21 -0.0002067)
(-1.83586e-21 1.83586e-21 -0.0002067)
(1.83586e-21 1.83586e-21 -0.0002067)
(1.83586e-21 -1.83586e-21 -0.0002067)
(-0 1.63058e-34 -0.0002067)
(-3.67173e-21 1.83586e-21 -0.0002067)
(-1.83586e-21 -1.83586e-21 -0.0002067)
(3.67173e-21 -1.83586e-21 -0.0002067)
(1.83586e-21 1.83586e-21 -0.0002067)
(-0 1.83586e-21 -0.0002067)
(-1.83586e-21 -0 -0.0002067)
(-1.63058e-34 -0 -0.0002067)
(1.83586e-21 -3.67173e-21 -0.0002067)
(-1.83586e-21 -1.83586e-21 -0.0002067)
(-1.83586e-21 3.67173e-21 -0.0002067)
(1.83586e-21 1.83586e-21 -0.0002067)
(1.83586e-21 -1.83586e-21 -0.0002067)
(-0 -3.18472e-37 -0.0002067)
(-3.67173e-21 -0 -0.0002067)
(-0 -0 -0.0002067)
(3.67173e-21 -1.62739e-34 -0.0002067)
(-0 -0 -0.0002067)
(-1.83586e-21 1.83586e-21 -0.0002067)
(-0 -0 -0.0002067)
(1.83586e-21 -1.83586e-21 -0.0002067)
(-0 -1.63376e-34 -0.0002067)
(-1.83586e-21 1.63376e-34 -0.0002067)
(-3.18472e-37 -3.18472e-37 -0.0002067)
(1.83586e-21 -1.83586e-21 -0.0002067)
(-1.83586e-21 -1.83586e-21 -0.0002067)
(-3.67173e-21 3.67173e-21 -0.0002067)
(1.83586e-21 1.83586e-21 -0.0002067)
(1.22391e-21 -0 -6.89e-05)
)
;

boundaryField
{
    top
    {
        type            calculated;
        value           uniform (1.22391e-21 -0 -0);
    }
    left
    {
        type            empty;
    }
    right
    {
        type            empty;
    }
    front
    {
        type            empty;
    }
    back
    {
        type            empty;
    }
    bottom
    {
        type            calculated;
        value           uniform (-1.83586e-21 -1.83586e-21 -0.0002067);
    }
}


// ************************************************************************* //
