/*--------------------------------*- C++ -*----------------------------------*\
  =========                 |
  \\      /  F ield         | OpenFOAM: The Open Source CFD Toolbox
   \\    /   O peration     | Website:  https://openfoam.org
    \\  /    A nd           | Version:  7
     \\/     M anipulation  |
\*---------------------------------------------------------------------------*/
FoamFile
{
    version     2.0;
    format      ascii;
    class       volVectorField;
    location    "0.000";
    object      U;
}
// * * * * * * * * * * * * * * * * * * * * * * * * * * * * * * * * * * * * * //

dimensions      [0 1 -1 0 0 0 0];

internalField   nonuniform List<vector> 
100
(
(1.75771e-23 1.75771e-23 -4.053e-05)
(1.75771e-23 1.75771e-23 -4.053e-05)
(-1.75771e-23 -0 -4.053e-05)
(-9.17181e-38 -1.75771e-23 -4.053e-05)
(1.75771e-23 -1.75771e-23 -4.053e-05)
(1.75771e-23 1.75771e-23 -4.053e-05)
(-4.68348e-38 1.75771e-23 -4.053e-05)
(-1.75771e-23 -0 -4.053e-05)
(1.75771e-23 -0 -4.053e-05)
(-1.75771e-23 -1.75771e-23 -4.053e-05)
(-3.51542e-23 -1.75771e-23 -4.053e-05)
(3.51542e-23 3.51542e-23 -4.053e-05)
(3.51542e-23 3.51542e-23 -4.053e-05)
(-5.27313e-23 -5.27313e-23 -4.053e-05)
(-0 -0 -4.053e-05)
(5.27313e-23 3.51542e-23 -4.053e-05)
(-3.51542e-23 -3.51542e-23 -4.053e-05)
(3.9029e-39 1.95145e-39 -4.053e-05)
(1.75771e-23 1.75771e-23 -4.053e-05)
(2.92717e-37 3.51542e-23 -4.053e-05)
(1.75771e-23 -3.9029e-39 -4.053e-05)
(-0 -3.51542e-23 -4.053e-05)
(-5.27313e-23 -1.75771e-23 -4.053e-05)
(-1.16306e-36 1.75771e-23 -4.053e-05)
(7.03083e-23 3.51542e-23 -4.053e-05)
(-3.51542e-23 -1.75771e-23 -4.053e-05)
(-5.27313e-23 -3.51542e-23 -4.053e-05)
(5.27313e-23 1.75771e-23 -4.053e-05)
(-1.17087e-36 1.75771e-23 -4.053e-05)
(-5.27313e-23 -3.51542e-23 -4.053e-05)
(-0 -1.95145e-39 -4.053e-05)
(-0 -1.97096e-37 -4.053e-05)
(3.51542e-23 -1.97096e-37 -4.053e-05)
(1.75771e-23 1.75771e-23 -4.053e-05)
(-1.97096e-37 1.75771e-23 -4.053e-05)
(-1.75771e-23 -1.95145e-39 -4.053e-05)
(-3.51542e-23 -3.51542e-23 -4.053e-05)
(5.27313e-23 1.75771e-23 -4.053e-05)
(3.51542e-23 1.75771e-23 -4.053e-05)
(-1.95145e-37 -1.95145e-37 -4.053e-05)
(-3.51542e-23 -6.01337e-72 -4.053e-05)
(-3.51542e-23 -1.75771e-23 -4.053e-05)
(-1.97096e-37 -0 -4.053e-05)
(-0 -0 -4.053e-05)
(3.51542e-23 -0 -4.053e-05)
(-1.95145e-37 -1.75771e-23 -4.053e-05)
(-1.97096e-37 -1.97096e-37 -4.053e-05)
(-1.75771e-23 -1.95145e-39 -4.053e-05)
(-7.84482e-37 -3.92241e-37 -4.053e-05)
(-3.94193e-37 -1.75771e-23 -4.053e-05)
(-3.51542e-23 -1.75771e-23 -4.053e-05)
(3.51542e-23 5.27313e-23 -4.053e-05)
(1.20267e-71 -1.75771e-23 -4.053e-05)
(-7.84482e-37 -1.17087e-36 -4.053e-05)
(7.80579e-37 1.75771e-23 -4.053e-05)
(-3.51542e-23 -1.75771e-23 -4.053e-05)
(3.51542e-23 1.75771e-23 -4.053e-05)
(3.51542e-23 -0 -4.053e-05)
(-0 1.75771e-23 -4.053e-05)
(-0 1.75771e-23 -4.053e-05)
(-0 -1.75771e-23 -4.053e-05)
(-0 -1.75771e-23 -4.053e-05)
(-0 1.75771e-23 -4.053e-05)
(-3.51542e-23 -1.75771e-23 -4.053e-05)
(-3.51542e-23 -5.27313e-23 -4.053e-05)
(3.51542e-23 1.75771e-23 -4.053e-05)
(7.76677e-37 1.75771e-23 -4.053e-05)
(-3.51542e-23 -0 -4.053e-05)
(-0 -1.75771e-23 -4.053e-05)
(-1.75771e-23 -1.75771e-23 -4.053e-05)
(-7.78628e-37 1.75771e-23 -4.053e-05)
(1.75771e-23 -0 -4.053e-05)
(-0 -1.75771e-23 -4.053e-05)
(-1.75771e-23 5.63753e-73 -4.053e-05)
(1.75771e-23 1.75771e-23 -4.053e-05)
(5.27313e-23 3.51542e-23 -4.053e-05)
(-1.75771e-23 -1.56116e-36 -4.053e-05)
(-3.51542e-23 -1.75771e-23 -4.053e-05)
(-0 -3.88338e-37 -4.053e-05)
(-0 -1.75771e-23 -4.053e-05)
(-0 -0 -4.053e-05)
(1.75771e-23 1.75771e-23 -4.053e-05)
(3.51542e-23 3.51542e-23 -4.053e-05)
(1.56311e-36 1.56311e-36 -4.053e-05)
(-3.51542e-23 -3.51542e-23 -4.053e-05)
(-1.75771e-23 -1.75771e-23 -4.053e-05)
(3.51542e-23 1.75771e-23 -4.053e-05)
(7.88385e-37 3.94193e-37 -4.053e-05)
(-1.75771e-23 -3.86387e-37 -4.053e-05)
(3.51542e-23 1.75771e-23 -4.053e-05)
(-1.75771e-23 -1.75771e-23 -4.053e-05)
(-2.33393e-36 1.75771e-23 -4.053e-05)
(7.80579e-37 1.75771e-23 -4.053e-05)
(-3.51542e-23 -3.51542e-23 -4.053e-05)
(-0 -1.16892e-36 -4.053e-05)
(-0 1.95145e-39 -4.053e-05)
(3.51542e-23 -7.82531e-37 -4.053e-05)
(-7.80579e-37 -1.75771e-23 -4.053e-05)
(-3.51542e-23 -1.75771e-23 -4.053e-05)
(-0 5.85903e-24 -1.351e-05)
)
;

boundaryField
{
    top
    {
        type            calculated;
        value           uniform (-0 5.52784e-24 -0);
    }
    left
    {
        type            empty;
    }
    right
    {
        type            empty;
    }
    front
    {
        type            empty;
    }
    back
    {
        type            empty;
    }
    bottom
    {
        type            calculated;
        value           uniform (1.75771e-23 1.75771e-23 -4.053e-05);
    }
}


// ************************************************************************* //
