/*--------------------------------*- C++ -*----------------------------------*\
  =========                 |
  \\      /  F ield         | OpenFOAM: The Open Source CFD Toolbox
   \\    /   O peration     | Website:  https://openfoam.org
    \\  /    A nd           | Version:  7
     \\/     M anipulation  |
\*---------------------------------------------------------------------------*/
FoamFile
{
    version     2.0;
    format      ascii;
    class       volVectorField;
    location    "0.000";
    object      U;
}
// * * * * * * * * * * * * * * * * * * * * * * * * * * * * * * * * * * * * * //

dimensions      [0 1 -1 0 0 0 0];

internalField   nonuniform List<vector> 
10100
(
(2.44671e-28 1.71472e-46 -2.0947e-12)
(2.66246e-44 -2.8782e-30 -2.0947e-12)
(5.16384e-44 1.54325e-45 -2.0947e-12)
(3.87288e-44 5.7564e-30 -2.0947e-12)
(1.03277e-43 2.8782e-30 -2.0947e-12)
(-2.06554e-43 4.77369e-76 -2.0947e-12)
(-3.0983e-43 1.54325e-45 -2.0947e-12)
(-1.25062e-44 -2.8782e-30 -2.0947e-12)
(-0 2.05767e-45 -2.0947e-12)
(-7.33911e-45 -5.7564e-30 -2.0947e-12)
(1.29096e-44 2.8782e-30 -2.0947e-12)
(-0 -5.7564e-30 -2.0947e-12)
(2.58192e-44 1.28604e-45 -2.0947e-12)
(5.16384e-44 2.57209e-46 -2.0947e-12)
(-2.49115e-44 -2.8782e-30 -2.0947e-12)
(-4.13107e-43 5.14417e-46 -2.0947e-12)
(-4.13107e-43 -0 -2.0947e-12)
(-1.29096e-44 5.14417e-46 -2.0947e-12)
(-0 1.54325e-45 -2.0947e-12)
(-4.13107e-43 5.7564e-30 -2.0947e-12)
(-2.58192e-44 5.14417e-46 -2.0947e-12)
(-5.16384e-44 -2.8782e-30 -2.0947e-12)
(-0 2.8782e-30 -2.0947e-12)
(4.13107e-43 -2.8782e-30 -2.0947e-12)
(1.29096e-44 2.57209e-46 -2.0947e-12)
(-1.29096e-44 2.57209e-46 -2.0947e-12)
(-0 -0 -2.0947e-12)
(-0 -0 -2.0947e-12)
(-0 2.57209e-46 -2.0947e-12)
(1.05899e-44 2.8782e-30 -2.0947e-12)
(-1.6137e-45 5.14417e-46 -2.0947e-12)
(-8.26214e-43 5.14417e-46 -2.0947e-12)
(-2.58192e-44 2.57209e-46 -2.0947e-12)
(-0 -0 -2.0947e-12)
(-1.29096e-44 -5.7564e-30 -2.0947e-12)
(8.26214e-43 -2.8782e-30 -2.0947e-12)
(-0 -5.7564e-30 -2.0947e-12)
(8.26214e-43 -5.7564e-30 -2.0947e-12)
(-0 5.14417e-46 -2.0947e-12)
(1.29096e-44 2.8782e-30 -2.0947e-12)
(-8.26214e-43 -0 -2.0947e-12)
(8.26214e-43 2.8782e-30 -2.0947e-12)
(-8.26214e-43 1.43325e-60 -2.0947e-12)
(-0 2.03678e-74 -2.0947e-12)
(-0 2.57209e-46 -2.0947e-12)
(-0 2.57209e-46 -2.0947e-12)
(-0 -0 -2.0947e-12)
(-0 -0 -2.0947e-12)
(1.29096e-44 -2.57209e-46 -2.0947e-12)
(-8.26214e-43 -2.57209e-46 -2.0947e-12)
(-1.65243e-42 4.29976e-60 -2.0947e-12)
(-0 -5.7564e-30 -2.0947e-12)
(-0 1.02883e-45 -2.0947e-12)
(1.2607e-44 -5.7564e-30 -2.0947e-12)
(-3.87288e-44 2.8782e-30 -2.0947e-12)
(-0 2.8782e-30 -2.0947e-12)
(-0 2.8782e-30 -2.0947e-12)
(-0 -5.7564e-30 -2.0947e-12)
(-1.65243e-42 5.14417e-46 -2.0947e-12)
(-0 -0 -2.0947e-12)
(-1.65243e-42 2.86651e-60 -2.0947e-12)
(-0 -0 -2.0947e-12)
(-0 -0 -2.0947e-12)
(-0 -0 -2.0947e-12)
(1.65243e-42 2.57209e-46 -2.0947e-12)
(6.05137e-46 -5.7564e-30 -2.0947e-12)
(-1.65243e-42 5.14417e-46 -2.0947e-12)
(-0 -2.8782e-30 -2.0947e-12)
(-0 2.8782e-30 -2.0947e-12)
(-0 -5.7564e-30 -2.0947e-12)
(-0 2.8782e-30 -2.0947e-12)
(-0 -2.8782e-30 -2.0947e-12)
(-1.65243e-42 2.8782e-30 -2.0947e-12)
(-0 -5.7564e-30 -2.0947e-12)
(-3.30486e-42 -2.8782e-30 -2.0947e-12)
(-0 -2.8782e-30 -2.0947e-12)
(6.60971e-42 2.8782e-30 -2.0947e-12)
(-0 -0 -2.0947e-12)
(6.60971e-42 -2.8782e-30 -2.0947e-12)
(-1.29096e-44 -2.57209e-46 -2.0947e-12)
(1.65243e-42 -5.14417e-46 -2.0947e-12)
(-0 -2.82172e-60 -2.0947e-12)
(-0 5.14417e-46 -2.0947e-12)
(-2.58192e-44 -5.73301e-60 -2.0947e-12)
(-0 -5.14417e-46 -2.0947e-12)
(-1.65243e-42 -2.57209e-46 -2.0947e-12)
(3.30486e-42 2.8782e-30 -2.0947e-12)
(-0 5.7564e-30 -2.0947e-12)
(7.96764e-45 -5.7564e-30 -2.0947e-12)
(-1.65243e-42 5.7564e-30 -2.0947e-12)
(1.65243e-42 -5.7564e-30 -2.0947e-12)
(2.58192e-44 2.8782e-30 -2.0947e-12)
(-0 -2.8782e-30 -2.0947e-12)
(-2.58192e-44 2.8782e-30 -2.0947e-12)
(1.29096e-44 -2.8782e-30 -2.0947e-12)
(3.30486e-42 2.8782e-30 -2.0947e-12)
(-0 -5.7564e-30 -2.0947e-12)
(-3.30486e-42 2.8782e-30 -2.0947e-12)
(3.30486e-42 -2.8782e-30 -2.0947e-12)
(3.30486e-42 2.8782e-30 -2.0947e-12)
(-0 -5.7564e-30 -2.0947e-12)
(4.89342e-28 2.8782e-30 -2.0947e-12)
(-1.10942e-43 -3.63082e-45 -2.0947e-12)
(-1.03277e-43 8.6346e-30 -2.0947e-12)
(-0 1.15128e-29 -2.0947e-12)
(4.13107e-43 2.8782e-30 -2.0947e-12)
(-2.06554e-43 -1.79157e-61 -2.0947e-12)
(-0 2.8782e-30 -2.0947e-12)
(-1.03277e-43 -5.7564e-30 -2.0947e-12)
(-0 2.8782e-30 -2.0947e-12)
(1.03277e-43 -2.8782e-30 -2.0947e-12)
(-1.52293e-44 2.01712e-45 -2.0947e-12)
(-3.87288e-44 -5.7564e-30 -2.0947e-12)
(-0 -3.58313e-61 -2.0947e-12)
(-2.58192e-44 2.8782e-30 -2.0947e-12)
(-2.06554e-43 -8.6346e-30 -2.0947e-12)
(4.13107e-43 2.8782e-30 -2.0947e-12)
(-0 2.8782e-30 -2.0947e-12)
(-6.19661e-43 2.8782e-30 -2.0947e-12)
(5.16384e-44 -5.7564e-30 -2.0947e-12)
(-1.23932e-42 2.8782e-30 -2.0947e-12)
(-6.19661e-43 -1.07494e-60 -2.0947e-12)
(-1.29096e-44 -2.8782e-30 -2.0947e-12)
(-0 2.8782e-30 -2.0947e-12)
(-1.65243e-42 -2.8782e-30 -2.0947e-12)
(3.87288e-44 5.14417e-46 -2.0947e-12)
(-8.26214e-43 5.7564e-30 -2.0947e-12)
(4.13107e-43 2.8782e-30 -2.0947e-12)
(4.13107e-43 2.8782e-30 -2.0947e-12)
(-1.23932e-42 2.8782e-30 -2.0947e-12)
(-4.13107e-43 8.87535e-45 -2.0947e-12)
(-8.26214e-43 2.8782e-30 -2.0947e-12)
(-0 1.02883e-45 -2.0947e-12)
(-8.26214e-43 2.8782e-30 -2.0947e-12)
(4.13107e-43 2.8782e-30 -2.0947e-12)
(1.23932e-42 -4.8411e-45 -2.0947e-12)
(8.26214e-43 -1.21027e-45 -2.0947e-12)
(-1.23932e-42 -4.8411e-45 -2.0947e-12)
(-0 -8.6346e-30 -2.0947e-12)
(-8.26214e-43 2.8782e-30 -2.0947e-12)
(8.26214e-43 2.8782e-30 -2.0947e-12)
(1.65243e-42 2.8782e-30 -2.0947e-12)
(-2.08241e-42 2.8782e-30 -2.0947e-12)
(1.53918e-42 2.8782e-30 -2.0947e-12)
(-4.13107e-43 1.02883e-45 -2.0947e-12)
(-8.26214e-43 5.7564e-30 -2.0947e-12)
(-1.00856e-43 -2.8782e-30 -2.0947e-12)
(-0 5.7564e-30 -2.0947e-12)
(-1.42207e-44 2.8782e-30 -2.0947e-12)
(-8.26214e-43 5.7564e-30 -2.0947e-12)
(-0 5.14417e-46 -2.0947e-12)
(-1.65243e-42 1.02883e-45 -2.0947e-12)
(-1.65243e-42 -2.8782e-30 -2.0947e-12)
(8.26214e-43 2.8782e-30 -2.0947e-12)
(-8.26214e-43 -4.8411e-45 -2.0947e-12)
(1.29096e-44 5.7564e-30 -2.0947e-12)
(-0 2.8782e-30 -2.0947e-12)
(-5.67625e-61 5.7564e-30 -2.0947e-12)
(-0 -8.87535e-45 -2.0947e-12)
(-0 5.7564e-30 -2.0947e-12)
(1.65243e-42 4.11534e-45 -2.0947e-12)
(6.60971e-42 5.7564e-30 -2.0947e-12)
(-0 5.7564e-30 -2.0947e-12)
(-0 1.02883e-45 -2.0947e-12)
(8.26214e-43 5.7564e-30 -2.0947e-12)
(-0 1.02883e-45 -2.0947e-12)
(-1.65243e-42 -8.0685e-45 -2.0947e-12)
(8.26214e-43 2.8782e-30 -2.0947e-12)
(-8.26214e-43 2.8782e-30 -2.0947e-12)
(-0 5.7564e-30 -2.0947e-12)
(-2.47864e-42 -2.8782e-30 -2.0947e-12)
(-0 8.6346e-30 -2.0947e-12)
(4.95729e-42 2.8782e-30 -2.0947e-12)
(-0 5.7564e-30 -2.0947e-12)
(1.65243e-42 -2.8782e-30 -2.0947e-12)
(3.30486e-42 1.21027e-45 -2.0947e-12)
(3.30486e-42 -2.8782e-30 -2.0947e-12)
(3.30486e-42 2.8782e-30 -2.0947e-12)
(-8.26214e-43 2.8782e-30 -2.0947e-12)
(-6.60971e-42 -2.8782e-30 -2.0947e-12)
(-1.65243e-42 2.8782e-30 -2.0947e-12)
(-0 1.02883e-45 -2.0947e-12)
(3.30486e-42 2.8782e-30 -2.0947e-12)
(4.95729e-42 1.02883e-45 -2.0947e-12)
(-0 2.8782e-30 -2.0947e-12)
(-2.47864e-42 2.8782e-30 -2.0947e-12)
(-1.65243e-42 2.8782e-30 -2.0947e-12)
(-2.47864e-42 2.8782e-30 -2.0947e-12)
(-1.65243e-42 5.7564e-30 -2.0947e-12)
(2.31969e-44 -2.8782e-30 -2.0947e-12)
(-2.47864e-42 5.7564e-30 -2.0947e-12)
(-3.30486e-42 -2.8782e-30 -2.0947e-12)
(-0 8.6346e-30 -2.0947e-12)
(-0 2.8782e-30 -2.0947e-12)
(1.29096e-44 5.7564e-30 -2.0947e-12)
(-0 -5.7564e-30 -2.0947e-12)
(9.91457e-42 2.8782e-30 -2.0947e-12)
(-1.82025e-42 -2.8782e-30 -2.0947e-12)
(-0 5.7564e-30 -2.0947e-12)
(-0 -2.8782e-30 -2.0947e-12)
(9.91457e-42 5.7564e-30 -2.0947e-12)
(8.26214e-43 -2.8782e-30 -2.0947e-12)
(-9.78684e-28 2.8782e-30 -2.0947e-12)
(5.16384e-44 2.8782e-30 -2.0947e-12)
(2.06554e-43 2.8782e-30 -2.0947e-12)
(2.06554e-43 -2.8782e-30 -2.0947e-12)
(-2.06554e-43 -2.8782e-30 -2.0947e-12)
(-3.18011e-43 2.8782e-30 -2.0947e-12)
(1.03277e-43 2.8782e-30 -2.0947e-12)
(-2.32373e-43 -2.42055e-45 -2.0947e-12)
(-0 2.8782e-30 -2.0947e-12)
(-0 2.8782e-30 -2.0947e-12)
(-0 -6.85822e-45 -2.0947e-12)
(-6.19661e-43 -2.8782e-30 -2.0947e-12)
(4.13107e-43 -0 -2.0947e-12)
(2.06554e-43 -4.03425e-45 -2.0947e-12)
(4.13107e-43 4.03425e-45 -2.0947e-12)
(-0 -4.03425e-45 -2.0947e-12)
(8.26214e-43 -2.01712e-45 -2.0947e-12)
(-0 -4.03425e-45 -2.0947e-12)
(-9.72254e-44 -5.7564e-30 -2.0947e-12)
(2.47864e-42 -2.8782e-30 -2.0947e-12)
(2.47864e-42 -0 -2.0947e-12)
(-0 -2.8782e-30 -2.0947e-12)
(-1.65243e-42 -0 -2.0947e-12)
(-8.26214e-43 -0 -2.0947e-12)
(-0 -0 -2.0947e-12)
(8.26214e-43 -1.12959e-44 -2.0947e-12)
(-0 -2.01712e-45 -2.0947e-12)
(-0 -2.01712e-45 -2.0947e-12)
(-0 -2.01712e-45 -2.0947e-12)
(1.65243e-42 -5.7564e-30 -2.0947e-12)
(-0 -2.01712e-45 -2.0947e-12)
(-3.30486e-42 -0 -2.0947e-12)
(-0 -2.01712e-45 -2.0947e-12)
(-0 -4.43767e-45 -2.0947e-12)
(4.13107e-43 5.7564e-30 -2.0947e-12)
(-1.23932e-42 2.8782e-30 -2.0947e-12)
(-1.96737e-42 5.7564e-30 -2.0947e-12)
(-0 2.8782e-30 -2.0947e-12)
(-4.13107e-43 -2.01712e-45 -2.0947e-12)
(-2.47864e-42 -0 -2.0947e-12)
(-0 -2.01712e-45 -2.0947e-12)
(-0 -0 -2.0947e-12)
(4.13107e-43 -2.01712e-45 -2.0947e-12)
(4.13107e-43 1.02883e-45 -2.0947e-12)
(-1.65243e-42 2.8782e-30 -2.0947e-12)
(-1.49671e-43 -2.8782e-30 -2.0947e-12)
(3.30486e-42 8.0685e-46 -2.0947e-12)
(-2.64243e-44 -2.01712e-45 -2.0947e-12)
(8.26214e-43 5.7564e-30 -2.0947e-12)
(-8.26214e-43 1.02883e-45 -2.0947e-12)
(-0 -2.8782e-30 -2.0947e-12)
(1.65243e-42 -2.01712e-45 -2.0947e-12)
(-2.58192e-44 -8.0685e-46 -2.0947e-12)
(3.30486e-42 -1.6137e-45 -2.0947e-12)
(-5.16384e-44 2.8782e-30 -2.0947e-12)
(-0 2.8782e-30 -2.0947e-12)
(-1.65243e-42 5.7564e-30 -2.0947e-12)
(-0 2.8782e-30 -2.0947e-12)
(-0 -4.03425e-45 -2.0947e-12)
(1.65243e-42 -2.8782e-30 -2.0947e-12)
(-6.60971e-42 -4.03425e-45 -2.0947e-12)
(3.30486e-42 5.7564e-30 -2.0947e-12)
(-0 -2.8782e-30 -2.0947e-12)
(1.65243e-42 5.7564e-30 -2.0947e-12)
(-2.47864e-42 -2.8782e-30 -2.0947e-12)
(-0 5.7564e-30 -2.0947e-12)
(8.26214e-43 -8.0685e-46 -2.0947e-12)
(-7.74576e-44 2.8782e-30 -2.0947e-12)
(4.13107e-42 -2.8782e-30 -2.0947e-12)
(-2.47864e-42 5.7564e-30 -2.0947e-12)
(8.26214e-43 2.8782e-30 -2.0947e-12)
(-9.27877e-45 2.42055e-45 -2.0947e-12)
(-0 5.24452e-45 -2.0947e-12)
(-0 -3.2274e-45 -2.0947e-12)
(-6.60971e-42 4.03425e-45 -2.0947e-12)
(-0 2.8782e-30 -2.0947e-12)
(1.96226e-42 -5.7564e-30 -2.0947e-12)
(-5.93841e-43 2.8782e-30 -2.0947e-12)
(3.30486e-42 -0 -2.0947e-12)
(1.65243e-42 2.8782e-30 -2.0947e-12)
(8.26214e-43 -0 -2.0947e-12)
(-0 2.8782e-30 -2.0947e-12)
(-6.60971e-42 -0 -2.0947e-12)
(-0 2.8782e-30 -2.0947e-12)
(6.60971e-42 5.24452e-45 -2.0947e-12)
(3.30486e-42 2.8782e-30 -2.0947e-12)
(-8.26214e-43 2.8782e-30 -2.0947e-12)
(-0 -0 -2.0947e-12)
(-0 2.8782e-30 -2.0947e-12)
(1.65243e-42 -2.8782e-30 -2.0947e-12)
(-1.65243e-42 5.7564e-30 -2.0947e-12)
(-0 2.8782e-30 -2.0947e-12)
(-3.30486e-42 2.8782e-30 -2.0947e-12)
(-0 2.8782e-30 -2.0947e-12)
(1.65243e-42 2.8782e-30 -2.0947e-12)
(3.30486e-42 2.8782e-30 -2.0947e-12)
(9.91457e-42 5.7564e-30 -2.0947e-12)
(-0 4.8411e-45 -2.0947e-12)
(4.95729e-42 2.05767e-45 -2.0947e-12)
(-3.30486e-42 2.8782e-30 -2.0947e-12)
(4.95729e-42 5.7564e-30 -2.0947e-12)
(-0 -2.8782e-30 -2.0947e-12)
(-1.29096e-44 -2.8782e-30 -2.0947e-12)
(-7.74576e-44 -5.7564e-30 -2.0947e-12)
(-1.03277e-43 -8.6346e-30 -2.0947e-12)
(-3.0983e-43 -2.8782e-30 -2.0947e-12)
(-3.61469e-43 4.43767e-45 -2.0947e-12)
(4.6084e-44 -2.8782e-30 -2.0947e-12)
(-0 2.8782e-30 -2.0947e-12)
(9.02058e-43 2.05767e-45 -2.0947e-12)
(-4.13107e-43 -2.8782e-30 -2.0947e-12)
(-1.03277e-43 2.78363e-44 -2.0947e-12)
(9.29491e-43 -5.7564e-30 -2.0947e-12)
(4.13107e-43 2.05767e-45 -2.0947e-12)
(4.13107e-43 -2.8782e-30 -2.0947e-12)
(-1.45233e-43 2.8782e-30 -2.0947e-12)
(-0 -2.8782e-30 -2.0947e-12)
(8.26214e-43 -2.8782e-30 -2.0947e-12)
(8.26214e-43 -2.8782e-30 -2.0947e-12)
(4.13107e-43 -7.16627e-61 -2.0947e-12)
(8.26214e-43 -0 -2.0947e-12)
(8.26214e-43 -2.8782e-30 -2.0947e-12)
(-1.23932e-42 2.8782e-30 -2.0947e-12)
(-0 -2.8782e-30 -2.0947e-12)
(-4.13107e-43 -0 -2.0947e-12)
(-6.19661e-43 2.05767e-45 -2.0947e-12)
(-0 -5.7564e-30 -2.0947e-12)
(-0 -2.8782e-30 -2.0947e-12)
(-0 -2.8782e-30 -2.0947e-12)
(1.96328e-42 -2.8782e-30 -2.0947e-12)
(1.65243e-42 -1.0489e-44 -2.0947e-12)
(1.23932e-42 -2.8782e-30 -2.0947e-12)
(8.26214e-43 2.8782e-30 -2.0947e-12)
(1.65243e-42 -0 -2.0947e-12)
(-0 1.6137e-45 -2.0947e-12)
(8.26214e-43 -2.8782e-30 -2.0947e-12)
(4.13107e-43 2.03678e-74 -2.0947e-12)
(1.23932e-42 -2.8782e-30 -2.0947e-12)
(-0 2.8782e-30 -2.0947e-12)
(1.23932e-42 -2.8782e-30 -2.0947e-12)
(4.13107e-43 4.11534e-45 -2.0947e-12)
(4.40716e-43 -2.8782e-30 -2.0947e-12)
(4.13107e-43 4.11534e-45 -2.0947e-12)
(4.13107e-43 -2.8782e-30 -2.0947e-12)
(1.23932e-42 -2.8782e-30 -2.0947e-12)
(-0 -2.8782e-30 -2.0947e-12)
(1.65243e-42 2.8782e-30 -2.0947e-12)
(-0 -2.8782e-30 -2.0947e-12)
(4.13107e-43 2.8782e-30 -2.0947e-12)
(1.03277e-43 -2.8782e-30 -2.0947e-12)
(-8.26214e-43 2.8782e-30 -2.0947e-12)
(-0 -7.66507e-45 -2.0947e-12)
(2.22045e-42 -2.8782e-30 -2.0947e-12)
(-0 -2.8782e-30 -2.0947e-12)
(-6.60971e-42 -5.7564e-30 -2.0947e-12)
(8.26214e-43 -2.8782e-30 -2.0947e-12)
(-0 6.05137e-45 -2.0947e-12)
(-0 4.03425e-45 -2.0947e-12)
(-0 -2.8782e-30 -2.0947e-12)
(-0 -5.7564e-30 -2.0947e-12)
(3.30486e-42 -2.8782e-30 -2.0947e-12)
(-3.30486e-42 -5.7564e-30 -2.0947e-12)
(5.13678e-57 -5.7564e-30 -2.0947e-12)
(3.92656e-42 -2.8782e-30 -2.0947e-12)
(-1.65243e-42 -2.8782e-30 -2.0947e-12)
(1.65243e-42 -2.8782e-30 -2.0947e-12)
(1.65243e-42 -2.8782e-30 -2.0947e-12)
(8.26214e-43 -2.8782e-30 -2.0947e-12)
(-1.85575e-44 -4.03425e-45 -2.0947e-12)
(-1.7281e-42 -5.7564e-30 -2.0947e-12)
(3.30486e-42 1.37164e-44 -2.0947e-12)
(-4.13107e-42 -2.8782e-30 -2.0947e-12)
(-6.09172e-44 -2.8782e-30 -2.0947e-12)
(4.13107e-42 -2.8782e-30 -2.0947e-12)
(1.65243e-42 -2.8782e-30 -2.0947e-12)
(3.30486e-42 -2.8782e-30 -2.0947e-12)
(-1.30885e-42 5.7564e-30 -2.0947e-12)
(-8.26214e-43 -2.8782e-30 -2.0947e-12)
(-1.65243e-42 4.11534e-45 -2.0947e-12)
(-1.65243e-42 -0 -2.0947e-12)
(-3.30486e-42 -0 -2.0947e-12)
(-0 -0 -2.0947e-12)
(3.30486e-42 -0 -2.0947e-12)
(3.30486e-42 -0 -2.0947e-12)
(-0 -0 -2.0947e-12)
(-0 -2.8782e-30 -2.0947e-12)
(-3.30486e-42 -0 -2.0947e-12)
(3.30486e-42 2.8782e-30 -2.0947e-12)
(-3.30486e-42 -7.16627e-60 -2.0947e-12)
(-8.26214e-43 2.05767e-45 -2.0947e-12)
(2.47864e-42 -2.8782e-30 -2.0947e-12)
(-1.65243e-42 6.05137e-45 -2.0947e-12)
(-1.65243e-42 -2.8782e-30 -2.0947e-12)
(-4.95729e-42 -2.8782e-30 -2.0947e-12)
(-0 -2.8782e-30 -2.0947e-12)
(1.65243e-42 2.8782e-30 -2.0947e-12)
(-8.26214e-43 2.8782e-30 -2.0947e-12)
(-6.60971e-42 9.6822e-45 -2.0947e-12)
(-1.65243e-42 -2.8782e-30 -2.0947e-12)
(3.30486e-42 -2.8782e-30 -2.0947e-12)
(-8.26214e-43 -2.8782e-30 -2.0947e-12)
(-4.95729e-42 9.6822e-45 -2.0947e-12)
(3.0983e-43 -2.8782e-30 -2.0947e-12)
(2.06554e-43 2.8782e-30 -2.0947e-12)
(1.03277e-43 5.7564e-30 -2.0947e-12)
(-2.58192e-43 2.8782e-30 -2.0947e-12)
(-0 5.7564e-30 -2.0947e-12)
(2.06554e-43 3.63082e-45 -2.0947e-12)
(1.03277e-43 2.8782e-30 -2.0947e-12)
(-2.06554e-43 -2.8782e-30 -2.0947e-12)
(4.13107e-43 2.05767e-45 -2.0947e-12)
(-5.16384e-43 2.8782e-30 -2.0947e-12)
(-2.06554e-43 -2.8782e-30 -2.0947e-12)
(-0 2.8782e-30 -2.0947e-12)
(4.13107e-43 -2.8782e-30 -2.0947e-12)
(-0 2.8782e-30 -2.0947e-12)
(-1.29096e-44 1.6137e-44 -2.0947e-12)
(-0 2.8782e-30 -2.0947e-12)
(1.30885e-42 -0 -2.0947e-12)
(-0 2.8782e-30 -2.0947e-12)
(2.06554e-43 8.6346e-30 -2.0947e-12)
(-0 -0 -2.0947e-12)
(6.54427e-43 -0 -2.0947e-12)
(-8.26214e-43 2.8782e-30 -2.0947e-12)
(-1.23932e-42 2.8782e-30 -2.0947e-12)
(8.26214e-43 2.05767e-45 -2.0947e-12)
(8.26214e-43 -2.8782e-30 -2.0947e-12)
(1.03277e-43 2.05767e-45 -2.0947e-12)
(-0 2.8782e-30 -2.0947e-12)
(-0 2.8782e-30 -2.0947e-12)
(1.65243e-42 2.8782e-30 -2.0947e-12)
(-0 2.8782e-30 -2.0947e-12)
(8.26214e-43 2.8782e-30 -2.0947e-12)
(-4.13107e-43 9.6822e-45 -2.0947e-12)
(7.22937e-43 2.8782e-30 -2.0947e-12)
(-1.65243e-42 2.8782e-30 -2.0947e-12)
(-1.75571e-42 -2.8782e-30 -2.0947e-12)
(-4.13107e-43 -0 -2.0947e-12)
(8.26214e-43 -2.8782e-30 -2.0947e-12)
(-3.61469e-43 2.8782e-30 -2.0947e-12)
(4.95729e-42 2.8782e-30 -2.0947e-12)
(-0 4.11534e-45 -2.0947e-12)
(8.26214e-43 2.8782e-30 -2.0947e-12)
(-0 4.11534e-45 -2.0947e-12)
(8.26214e-43 2.8782e-30 -2.0947e-12)
(-0 2.01712e-45 -2.0947e-12)
(-5.16384e-44 2.05767e-45 -2.0947e-12)
(-0 5.7564e-30 -2.0947e-12)
(1.65243e-42 2.8782e-30 -2.0947e-12)
(-4.13107e-43 2.8782e-30 -2.0947e-12)
(-5.09194e-75 -2.8782e-30 -2.0947e-12)
(-0 3.63082e-45 -2.0947e-12)
(-1.65243e-42 5.7564e-30 -2.0947e-12)
(-0 2.8782e-30 -2.0947e-12)
(8.26214e-43 2.8782e-30 -2.0947e-12)
(-3.30486e-42 2.8782e-30 -2.0947e-12)
(-4.95729e-42 -2.8782e-30 -2.0947e-12)
(-0 -5.7564e-30 -2.0947e-12)
(-3.30486e-42 -2.8782e-30 -2.0947e-12)
(-0 2.05767e-45 -2.0947e-12)
(-0 2.8782e-30 -2.0947e-12)
(1.65243e-42 -2.8782e-30 -2.0947e-12)
(1.65243e-42 2.8782e-30 -2.0947e-12)
(-0 -2.8782e-30 -2.0947e-12)
(-6.60971e-42 2.8782e-30 -2.0947e-12)
(1.65243e-42 -2.8782e-30 -2.0947e-12)
(-3.30486e-42 2.8782e-30 -2.0947e-12)
(1.57336e-44 -2.8782e-30 -2.0947e-12)
(-1.65243e-42 2.8782e-30 -2.0947e-12)
(4.07355e-74 4.03425e-46 -2.0947e-12)
(-0 2.8782e-30 -2.0947e-12)
(-8.26214e-43 -2.8782e-30 -2.0947e-12)
(-0 -2.8782e-30 -2.0947e-12)
(5.09194e-75 2.8782e-30 -2.0947e-12)
(-8.26214e-43 -2.03678e-74 -2.0947e-12)
(1.65243e-42 2.8782e-30 -2.0947e-12)
(-2.47864e-42 2.05767e-45 -2.0947e-12)
(-0 -7.66507e-45 -2.0947e-12)
(2.06554e-43 2.8782e-30 -2.0947e-12)
(-2.47864e-42 -0 -2.0947e-12)
(-0 -0 -2.0947e-12)
(3.26907e-42 -0 -2.0947e-12)
(8.26214e-43 -2.8782e-30 -2.0947e-12)
(-2.47864e-42 -0 -2.0947e-12)
(-2.47864e-42 -0 -2.0947e-12)
(-1.65243e-42 -0 -2.0947e-12)
(2.13711e-42 -0 -2.0947e-12)
(2.44694e-42 2.05767e-45 -2.0947e-12)
(-8.26214e-43 -5.7564e-30 -2.0947e-12)
(-0 -2.8782e-30 -2.0947e-12)
(-0 2.05767e-45 -2.0947e-12)
(-8.26214e-43 2.8782e-30 -2.0947e-12)
(4.95729e-42 -5.7564e-30 -2.0947e-12)
(-2.47864e-42 -0 -2.0947e-12)
(-0 2.8782e-30 -2.0947e-12)
(-1.65243e-42 -2.8782e-30 -2.0947e-12)
(-2.61771e-42 -2.8782e-30 -2.0947e-12)
(3.30486e-42 -2.8782e-30 -2.0947e-12)
(-1.65243e-42 -5.7564e-30 -2.0947e-12)
(8.26214e-43 -0 -2.0947e-12)
(7.43593e-42 1.16993e-44 -2.0947e-12)
(2.06554e-43 -2.8782e-30 -2.0947e-12)
(1.95737e-27 -2.8782e-30 -2.0947e-12)
(-1.95737e-27 2.8782e-30 -2.0947e-12)
(1.03277e-43 2.8782e-30 -2.0947e-12)
(-1.03277e-43 2.8782e-30 -2.0947e-12)
(2.06554e-43 2.8782e-30 -2.0947e-12)
(1.70137e-43 8.6346e-30 -2.0947e-12)
(2.06554e-43 -3.63082e-45 -2.0947e-12)
(4.13107e-43 -1.0489e-44 -2.0947e-12)
(-1.03277e-43 -2.8782e-30 -2.0947e-12)
(-5.16384e-44 8.95783e-62 -2.0947e-12)
(-0 2.8782e-30 -2.0947e-12)
(-0 -0 -2.0947e-12)
(-2.58192e-43 8.6346e-30 -2.0947e-12)
(-1.03277e-43 -2.8782e-30 -2.0947e-12)
(-4.13107e-43 2.8782e-30 -2.0947e-12)
(2.06554e-43 8.6346e-30 -2.0947e-12)
(-0 5.7564e-30 -2.0947e-12)
(-8.26214e-43 2.8782e-30 -2.0947e-12)
(-0 2.8782e-30 -2.0947e-12)
(-6.19661e-43 2.8782e-30 -2.0947e-12)
(-0 2.8782e-30 -2.0947e-12)
(-5.16384e-43 2.8782e-30 -2.0947e-12)
(1.65243e-42 -2.8782e-30 -2.0947e-12)
(-0 1.15128e-29 -2.0947e-12)
(-8.26214e-43 4.11534e-45 -2.0947e-12)
(4.13107e-43 2.8782e-30 -2.0947e-12)
(-0 5.7564e-30 -2.0947e-12)
(-4.13107e-43 2.8782e-30 -2.0947e-12)
(-0 2.8782e-30 -2.0947e-12)
(8.26214e-43 2.8782e-30 -2.0947e-12)
(1.30885e-42 2.8782e-30 -2.0947e-12)
(-0 2.8782e-30 -2.0947e-12)
(-1.30885e-42 -2.8782e-30 -2.0947e-12)
(-0 -0 -2.0947e-12)
(8.26214e-43 -0 -2.0947e-12)
(-0 2.8782e-30 -2.0947e-12)
(1.65243e-42 -2.8782e-30 -2.0947e-12)
(-1.49751e-42 2.8782e-30 -2.0947e-12)
(8.26214e-43 2.8782e-30 -2.0947e-12)
(-1.65243e-42 2.8782e-30 -2.0947e-12)
(1.65243e-42 -0 -2.0947e-12)
(2.04508e-43 -1.80678e-89 -2.0947e-12)
(-0 -0 -2.0947e-12)
(-0 2.8782e-30 -2.0947e-12)
(-0 2.8782e-30 -2.0947e-12)
(8.26214e-43 4.11534e-45 -2.0947e-12)
(8.26214e-43 1.69438e-44 -2.0947e-12)
(-0 4.11534e-45 -2.0947e-12)
(2.06554e-42 -2.8782e-30 -2.0947e-12)
(-0 -0 -2.0947e-12)
(-0 -2.8782e-30 -2.0947e-12)
(-2.61771e-42 -2.8782e-30 -2.0947e-12)
(-8.26214e-43 2.8782e-30 -2.0947e-12)
(-0 -2.8782e-30 -2.0947e-12)
(-0 5.7564e-30 -2.0947e-12)
(1.65243e-42 2.8782e-30 -2.0947e-12)
(8.26214e-43 -2.8782e-30 -2.0947e-12)
(1.65243e-42 2.05767e-45 -2.0947e-12)
(-0 -0 -2.0947e-12)
(-1.65243e-42 2.8782e-30 -2.0947e-12)
(-1.65243e-42 2.8782e-30 -2.0947e-12)
(-0 5.7564e-30 -2.0947e-12)
(8.26214e-43 2.8782e-30 -2.0947e-12)
(-1.65243e-42 5.7564e-30 -2.0947e-12)
(1.65243e-42 2.8782e-30 -2.0947e-12)
(1.65243e-42 2.8782e-30 -2.0947e-12)
(-0 -0 -2.0947e-12)
(1.65243e-42 2.8782e-30 -2.0947e-12)
(-0 2.8782e-30 -2.0947e-12)
(-3.30486e-42 2.8782e-30 -2.0947e-12)
(-0 -0 -2.0947e-12)
(1.65243e-42 -7.26165e-45 -2.0947e-12)
(-0 4.29976e-60 -2.0947e-12)
(-0 -0 -2.0947e-12)
(3.30486e-42 5.7564e-30 -2.0947e-12)
(-0 -5.7564e-30 -2.0947e-12)
(-2.53028e-42 -2.8782e-30 -2.0947e-12)
(-0 -0 -2.0947e-12)
(2.47864e-42 -0 -2.0947e-12)
(3.30486e-42 2.8782e-30 -2.0947e-12)
(4.95729e-42 2.05767e-45 -2.0947e-12)
(3.30486e-42 8.0685e-45 -2.0947e-12)
(1.65243e-42 -5.7564e-30 -2.0947e-12)
(-1.65243e-42 -0 -2.0947e-12)
(-0 -0 -2.0947e-12)
(-3.30486e-42 -0 -2.0947e-12)
(-1.65243e-42 -5.7564e-30 -2.0947e-12)
(8.26214e-43 -5.64795e-45 -2.0947e-12)
(6.60971e-42 2.01712e-45 -2.0947e-12)
(-4.13107e-42 2.8782e-30 -2.0947e-12)
(1.65243e-42 2.8782e-30 -2.0947e-12)
(-2.65759e-42 2.8782e-30 -2.0947e-12)
(-0 6.17301e-45 -2.0947e-12)
(3.30486e-42 2.8782e-30 -2.0947e-12)
(8.26214e-43 4.11534e-45 -2.0947e-12)
(-1.65243e-42 8.1471e-74 -2.0947e-12)
(-0 -2.8782e-30 -2.0947e-12)
(3.30486e-42 5.7564e-30 -2.0947e-12)
(-0 -2.8782e-30 -2.0947e-12)
(-0 5.7564e-30 -2.0947e-12)
(-0 -0 -2.0947e-12)
(-1.95737e-27 5.7564e-30 -2.0947e-12)
(-0 -8.87535e-45 -2.0947e-12)
(-1.29096e-44 -2.8782e-30 -2.0947e-12)
(2.06554e-43 8.0685e-46 -2.0947e-12)
(-3.0983e-43 -2.8782e-30 -2.0947e-12)
(1.18174e-43 2.8782e-30 -2.0947e-12)
(-3.40491e-43 2.8782e-30 -2.0947e-12)
(-2.06554e-43 -3.14671e-44 -2.0947e-12)
(-8.26214e-43 -4.11534e-45 -2.0947e-12)
(-0 2.8782e-30 -2.0947e-12)
(1.03277e-43 -2.8782e-30 -2.0947e-12)
(-0 -0 -2.0947e-12)
(-0 -2.8782e-30 -2.0947e-12)
(2.06554e-43 -1.2346e-44 -2.0947e-12)
(-0 1.2346e-44 -2.0947e-12)
(-0 2.8782e-30 -2.0947e-12)
(-8.26214e-43 1.21027e-44 -2.0947e-12)
(2.06554e-43 2.8782e-30 -2.0947e-12)
(2.29145e-43 -0 -2.0947e-12)
(-8.26214e-43 -2.8782e-30 -2.0947e-12)
(-0 1.16993e-44 -2.0947e-12)
(4.13107e-43 4.11534e-45 -2.0947e-12)
(8.26214e-43 2.8782e-30 -2.0947e-12)
(-0 -5.7564e-30 -2.0947e-12)
(-4.13107e-43 8.23067e-45 -2.0947e-12)
(8.26214e-43 -4.03425e-45 -2.0947e-12)
(8.26214e-43 2.8782e-30 -2.0947e-12)
(-8.26214e-43 2.8782e-30 -2.0947e-12)
(-0 2.8782e-30 -2.0947e-12)
(-5.3747e-61 2.8782e-30 -2.0947e-12)
(2.06554e-42 2.8782e-30 -2.0947e-12)
(-1.65243e-42 2.8782e-30 -2.0947e-12)
(-4.13107e-43 2.8782e-30 -2.0947e-12)
(-0 2.8782e-30 -2.0947e-12)
(8.26214e-43 4.11534e-45 -2.0947e-12)
(8.26214e-43 -2.8782e-30 -2.0947e-12)
(8.26214e-43 -0 -2.0947e-12)
(2.61771e-42 -2.8782e-30 -2.0947e-12)
(-8.26214e-43 -3.63082e-45 -2.0947e-12)
(8.26214e-43 2.8782e-30 -2.0947e-12)
(-3.30486e-42 -4.11534e-45 -2.0947e-12)
(8.26214e-43 2.8782e-30 -2.0947e-12)
(1.65243e-42 -4.11534e-45 -2.0947e-12)
(-0 2.8782e-30 -2.0947e-12)
(-1.65243e-42 2.8782e-30 -2.0947e-12)
(1.65243e-42 2.8782e-30 -2.0947e-12)
(-4.13107e-43 -5.7564e-30 -2.0947e-12)
(-0 -0 -2.0947e-12)
(-0 -0 -2.0947e-12)
(8.26214e-43 -2.8782e-30 -2.0947e-12)
(-1.25029e-42 -2.8782e-30 -2.0947e-12)
(1.65243e-42 2.17849e-44 -2.0947e-12)
(-4.13107e-43 -2.8782e-30 -2.0947e-12)
(-3.30486e-42 -1.6137e-44 -2.0947e-12)
(-7.16627e-61 2.8782e-30 -2.0947e-12)
(-1.65243e-42 4.03425e-45 -2.0947e-12)
(4.95729e-42 2.8782e-30 -2.0947e-12)
(-0 -2.8782e-30 -2.0947e-12)
(1.65243e-42 -0 -2.0947e-12)
(-2.06554e-43 4.11534e-45 -2.0947e-12)
(-8.26214e-43 2.8782e-30 -2.0947e-12)
(-0 8.0685e-45 -2.0947e-12)
(1.69438e-43 -2.8782e-30 -2.0947e-12)
(-1.03277e-43 1.57336e-44 -2.0947e-12)
(2.47864e-42 -2.8782e-30 -2.0947e-12)
(-3.30486e-42 -2.8782e-30 -2.0947e-12)
(-0 -2.8782e-30 -2.0947e-12)
(-2.06554e-43 4.11534e-45 -2.0947e-12)
(-8.47192e-44 8.0685e-45 -2.0947e-12)
(3.30486e-42 4.11534e-45 -2.0947e-12)
(-1.65243e-42 -2.8782e-30 -2.0947e-12)
(-0 1.21027e-44 -2.0947e-12)
(-8.26214e-43 1.2346e-44 -2.0947e-12)
(-5.301e-43 -1.38239e-58 -2.0947e-12)
(-1.65243e-42 -2.8782e-30 -2.0947e-12)
(-8.0685e-45 -1.6137e-44 -2.0947e-12)
(-0 -4.11534e-45 -2.0947e-12)
(5.3747e-61 2.8782e-30 -2.0947e-12)
(8.26214e-43 -2.8782e-30 -2.0947e-12)
(-1.65243e-42 -2.8782e-30 -2.0947e-12)
(-0 -2.8782e-30 -2.0947e-12)
(8.26214e-43 -1.6137e-44 -2.0947e-12)
(3.45415e-42 -2.8782e-30 -2.0947e-12)
(-0 -2.8782e-30 -2.0947e-12)
(-1.65243e-42 -2.8782e-30 -2.0947e-12)
(-0 -2.8782e-30 -2.0947e-12)
(8.26214e-43 -2.8782e-30 -2.0947e-12)
(3.30486e-42 -3.2274e-45 -2.0947e-12)
(-0 2.8782e-30 -2.0947e-12)
(9.91457e-42 -2.8782e-30 -2.0947e-12)
(8.26214e-43 -2.8782e-30 -2.0947e-12)
(-3.30486e-42 -7.26165e-45 -2.0947e-12)
(-3.30486e-42 8.23067e-45 -2.0947e-12)
(-3.30486e-42 4.11534e-45 -2.0947e-12)
(3.30486e-42 -2.8782e-30 -2.0947e-12)
(-3.30486e-42 2.8782e-30 -2.0947e-12)
(3.30486e-42 -5.7564e-30 -2.0947e-12)
(3.30486e-42 -2.8782e-30 -2.0947e-12)
(-0 2.8782e-30 -2.0947e-12)
(3.58313e-61 8.0685e-45 -2.0947e-12)
(-2.47864e-42 8.23067e-45 -2.0947e-12)
(1.65243e-42 -2.8782e-30 -2.0947e-12)
(-0 -2.8782e-30 -2.0947e-12)
(9.03672e-44 -2.8782e-30 -2.0947e-12)
(2.58192e-43 2.8782e-30 -2.0947e-12)
(-9.03672e-44 -2.8782e-30 -2.0947e-12)
(-1.23932e-42 -2.8782e-30 -2.0947e-12)
(5.68534e-43 2.8782e-30 -2.0947e-12)
(8.26214e-43 5.7564e-30 -2.0947e-12)
(-6.09435e-43 1.64613e-44 -2.0947e-12)
(1.03277e-43 1.21027e-44 -2.0947e-12)
(-4.13107e-43 2.8782e-30 -2.0947e-12)
(-4.13107e-43 4.11534e-45 -2.0947e-12)
(8.26214e-43 2.8782e-30 -2.0947e-12)
(-2.7917e-43 6.27048e-61 -2.0947e-12)
(-4.13107e-43 4.11534e-45 -2.0947e-12)
(-2.06554e-43 -2.8782e-30 -2.0947e-12)
(2.47864e-42 -2.8782e-30 -2.0947e-12)
(-8.26214e-43 2.8782e-30 -2.0947e-12)
(-0 -0 -2.0947e-12)
(-0 -2.13815e-44 -2.0947e-12)
(-4.13107e-43 -1.16993e-44 -2.0947e-12)
(2.27209e-42 2.8782e-30 -2.0947e-12)
(1.65243e-42 -4.03425e-46 -2.0947e-12)
(1.65243e-42 -8.6346e-30 -2.0947e-12)
(2.06554e-43 -1.01839e-74 -2.0947e-12)
(-0 -2.8782e-30 -2.0947e-12)
(8.26214e-43 -2.8782e-30 -2.0947e-12)
(-4.13107e-43 2.8782e-30 -2.0947e-12)
(-0 2.8782e-30 -2.0947e-12)
(-0 2.8782e-30 -2.0947e-12)
(-0 -0 -2.0947e-12)
(1.65243e-42 2.8782e-30 -2.0947e-12)
(-0 2.8782e-30 -2.0947e-12)
(-4.13107e-43 2.8782e-30 -2.0947e-12)
(3.0983e-43 2.8782e-30 -2.0947e-12)
(-2.47864e-42 2.8782e-30 -2.0947e-12)
(4.13107e-43 5.7564e-30 -2.0947e-12)
(-0 4.8411e-45 -2.0947e-12)
(1.65243e-42 8.47192e-45 -2.0947e-12)
(4.01206e-43 2.8782e-30 -2.0947e-12)
(-0 2.8782e-30 -2.0947e-12)
(-0 5.7564e-30 -2.0947e-12)
(-0 2.8782e-30 -2.0947e-12)
(4.95729e-42 2.8782e-30 -2.0947e-12)
(-0 2.8782e-30 -2.0947e-12)
(-2.06554e-42 2.8782e-30 -2.0947e-12)
(-1.9326e-42 -2.8782e-30 -2.0947e-12)
(8.26214e-43 2.8782e-30 -2.0947e-12)
(1.65243e-42 2.8782e-30 -2.0947e-12)
(-4.13107e-43 2.8782e-30 -2.0947e-12)
(-2.47864e-42 2.8782e-30 -2.0947e-12)
(2.06554e-43 2.8782e-30 -2.0947e-12)
(-8.26214e-43 2.8782e-30 -2.0947e-12)
(-0 8.6346e-30 -2.0947e-12)
(-0 -2.8782e-30 -2.0947e-12)
(8.26214e-43 -8.0685e-45 -2.0947e-12)
(-1.65243e-42 2.8782e-30 -2.0947e-12)
(-8.26214e-43 2.8782e-30 -2.0947e-12)
(-4.95729e-42 2.8782e-30 -2.0947e-12)
(-2.47864e-42 2.8782e-30 -2.0947e-12)
(-8.26214e-43 -2.8782e-30 -2.0947e-12)
(-1.65243e-42 -1.16993e-44 -2.0947e-12)
(-0 2.8782e-30 -2.0947e-12)
(-2.43669e-43 -2.8782e-30 -2.0947e-12)
(-0 -7.26165e-45 -2.0947e-12)
(-8.26214e-43 1.01839e-74 -2.0947e-12)
(3.0983e-43 2.8782e-30 -2.0947e-12)
(-0 2.8782e-30 -2.0947e-12)
(-4.95729e-42 -1.53301e-44 -2.0947e-12)
(-1.65243e-42 2.8782e-30 -2.0947e-12)
(-3.30486e-42 5.7564e-30 -2.0947e-12)
(-1.65243e-42 -1.53301e-44 -2.0947e-12)
(-1.65243e-42 2.8782e-30 -2.0947e-12)
(1.37164e-43 2.8782e-30 -2.0947e-12)
(3.30486e-42 2.8782e-30 -2.0947e-12)
(1.53301e-43 5.7564e-30 -2.0947e-12)
(1.65243e-42 2.8782e-30 -2.0947e-12)
(-0 -4.03425e-46 -2.0947e-12)
(-8.26214e-43 2.8782e-30 -2.0947e-12)
(-4.95729e-42 2.8782e-30 -2.0947e-12)
(-2.06554e-43 -0 -2.0947e-12)
(-1.65243e-42 -4.07355e-74 -2.0947e-12)
(-8.26214e-43 5.7564e-30 -2.0947e-12)
(6.60971e-42 2.8782e-30 -2.0947e-12)
(1.65243e-42 -2.03678e-74 -2.0947e-12)
(-1.84262e-42 2.8782e-30 -2.0947e-12)
(1.7428e-43 5.7564e-30 -2.0947e-12)
(-0 -2.8782e-30 -2.0947e-12)
(8.26214e-42 8.23067e-45 -2.0947e-12)
(-9.91457e-42 2.8782e-30 -2.0947e-12)
(1.65243e-42 3.05516e-74 -2.0947e-12)
(1.65243e-42 -2.8782e-30 -2.0947e-12)
(-8.26214e-43 2.8782e-30 -2.0947e-12)
(2.06554e-43 1.64613e-44 -2.0947e-12)
(3.30486e-42 2.09781e-44 -2.0947e-12)
(6.60971e-42 1.21027e-44 -2.0947e-12)
(-0 -7.26165e-45 -2.0947e-12)
(6.60971e-42 -2.8782e-30 -2.0947e-12)
(-0 5.7564e-30 -2.0947e-12)
(-0 -5.7564e-30 -2.0947e-12)
(-1.65243e-42 2.8782e-30 -2.0947e-12)
(-3.91474e-27 -4.42159e-44 -2.0947e-12)
(3.91474e-27 -0 -2.0947e-12)
(3.84458e-43 3.2274e-45 -2.0947e-12)
(-0 4.11534e-45 -2.0947e-12)
(4.13107e-43 2.4692e-44 -2.0947e-12)
(5.16384e-43 -5.7564e-30 -2.0947e-12)
(4.13107e-43 -2.8782e-30 -2.0947e-12)
(-0 7.16627e-61 -2.0947e-12)
(-4.13107e-43 -2.8782e-30 -2.0947e-12)
(2.06554e-43 -2.8782e-30 -2.0947e-12)
(-9.6822e-44 -2.8782e-30 -2.0947e-12)
(-4.13107e-43 -2.8782e-30 -2.0947e-12)
(3.76221e-43 2.8782e-30 -2.0947e-12)
(2.90466e-44 5.7564e-30 -2.0947e-12)
(-4.13107e-43 8.23067e-45 -2.0947e-12)
(1.23932e-42 -5.09194e-75 -2.0947e-12)
(-8.26214e-43 2.8782e-30 -2.0947e-12)
(-2.06554e-43 7.66507e-45 -2.0947e-12)
(-2.06554e-43 -4.11534e-45 -2.0947e-12)
(4.13107e-43 8.0685e-45 -2.0947e-12)
(1.23932e-42 2.8782e-30 -2.0947e-12)
(8.26214e-43 1.8961e-44 -2.0947e-12)
(-1.65243e-42 -5.7564e-30 -2.0947e-12)
(3.30486e-42 8.6346e-30 -2.0947e-12)
(-0 -2.8782e-30 -2.0947e-12)
(2.06554e-43 2.8782e-30 -2.0947e-12)
(-4.13107e-43 2.8782e-30 -2.0947e-12)
(8.26214e-43 -2.8782e-30 -2.0947e-12)
(-4.13107e-43 -2.8782e-30 -2.0947e-12)
(-4.13107e-43 -2.8782e-30 -2.0947e-12)
(-0 -5.7564e-30 -2.0947e-12)
(-4.13107e-43 -2.8782e-30 -2.0947e-12)
(-0 -5.7564e-30 -2.0947e-12)
(-0 -5.7564e-30 -2.0947e-12)
(-4.13107e-43 3.5098e-44 -2.0947e-12)