/*--------------------------------*- C++ -*----------------------------------*\
  =========                 |
  \\      /  F ield         | OpenFOAM: The Open Source CFD Toolbox
   \\    /   O peration     | Website:  https://openfoam.org
    \\  /    A nd           | Version:  7
     \\/     M anipulation  |
\*---------------------------------------------------------------------------*/
FoamFile
{
    version     2.0;
    format      ascii;
    class       volVectorField;
    location    "0.000";
    object      U;
}
// * * * * * * * * * * * * * * * * * * * * * * * * * * * * * * * * * * * * * //

dimensions      [0 1 -1 0 0 0 0];

internalField   nonuniform List<vector> 
124
(
(1.58861e-24 -0 -3.54573e-07)
(7.63192e-25 8.04766e-25 -3.54573e-07)
(-7.94305e-25 -2.10611e-26 -3.54573e-07)
(8.26105e-25 2.13385e-26 -3.54573e-07)
(8.15366e-25 1.65235e-24 -3.54573e-07)
(8.48009e-25 8.26105e-25 -3.54573e-07)
(-8.81371e-25 -1.71836e-24 -3.54573e-07)
(-8.25524e-25 -8.25524e-25 -3.54573e-07)
(-2.27812e-26 -2.27812e-26 -3.54573e-07)
(2.30813e-26 2.30813e-26 -3.54573e-07)
(8.81959e-25 8.81959e-25 -3.54573e-07)
(-0 -0 -3.54573e-07)
(-0 -0 -3.54573e-07)
(9.4159e-25 9.4159e-25 -3.54573e-07)
(-2.46419e-26 -2.46419e-26 -3.54573e-07)
(2.49664e-26 2.49664e-26 -3.54573e-07)
(-1.00458e-24 -2.52952e-26 -3.54573e-07)
(-1.93311e-24 -1.95874e-24 -3.54573e-07)
(2.01051e-24 1.03122e-24 -3.54573e-07)
(3.00286e-24 9.65877e-25 -3.54573e-07)
(-2.66545e-26 -1.00525e-24 -3.54573e-07)
(2.70055e-26 1.0455e-24 -3.54573e-07)
(-2.73612e-26 -2.73612e-26 -3.54573e-07)
(-1.0455e-24 2.77216e-26 -3.54573e-07)
(-2.17471e-24 -1.11544e-24 -3.54573e-07)
(-2.14644e-24 -2.14644e-24 -3.54573e-07)
(-0 -0 -3.54573e-07)
(2.26178e-24 1.13089e-24 -3.54573e-07)
(1.08659e-24 1.11619e-24 -3.54573e-07)
(-3.45263e-24 -1.16087e-24 -3.54573e-07)
(6.07612e-26 3.03806e-26 -3.54573e-07)
(2.32175e-24 1.16087e-24 -3.54573e-07)
(-0 -0 -3.54573e-07)
(-1.22325e-24 -1.22325e-24 -3.54573e-07)
(3.2013e-26 1.27138e-24 -3.54573e-07)
(1.22325e-24 1.19082e-24 -3.54573e-07)
(-1.27222e-24 -2.51159e-24 -3.54573e-07)
(1.32228e-24 1.32228e-24 -3.54573e-07)
(2.54445e-24 -6.74665e-26 -3.54573e-07)
(-2.64632e-24 -2.57796e-24 -3.54573e-07)
(-1.27133e-24 1.34059e-24 -3.54573e-07)
(2.6814e-24 1.32316e-24 -3.54573e-07)
(1.34059e-24 -0 -3.54573e-07)
(-2.78851e-24 -1.39426e-24 -3.54573e-07)
(-1.33964e-24 3.64883e-26 -3.54573e-07)
(1.39426e-24 1.39426e-24 -3.54573e-07)
(-1.45008e-24 -1.45008e-24 -3.54573e-07)
(3.79492e-26 3.79492e-26 -3.54573e-07)
(2.9386e-24 2.9386e-24 -3.54573e-07)
(-3.89553e-26 -3.89553e-26 -3.54573e-07)
(-3.01652e-24 -4.54451e-24 -3.54573e-07)
(-1.50813e-24 7.99766e-26 -3.54573e-07)
(3.13701e-24 3.05598e-24 -3.54573e-07)
(-8.20971e-26 -1.58917e-24 -3.54573e-07)
(-1.52692e-24 -1.56851e-24 -3.54573e-07)
(1.58917e-24 -0 -3.54573e-07)
(-0 1.65279e-24 -3.54573e-07)
(-0 1.6313e-24 -3.54573e-07)
(-1.69661e-24 -1.69661e-24 -3.54573e-07)
(4.44012e-26 -1.67456e-24 -3.54573e-07)
(1.69661e-24 1.7416e-24 -3.54573e-07)
(-0 -4.55785e-26 -3.54573e-07)
(1.78778e-24 -1.7416e-24 -3.54573e-07)
(-4.6787e-26 1.81132e-24 -3.54573e-07)
(-1.78778e-24 -4.74032e-26 -3.54573e-07)
(-0 4.80275e-26 -3.54573e-07)
(1.88384e-24 3.71902e-24 -3.54573e-07)
(1.85935e-24 -4.9301e-26 -3.54573e-07)
(-0 -1.88384e-24 -3.54573e-07)
(-1.95926e-24 -0 -3.54573e-07)
(-3.91886e-24 -1.98507e-24 -3.54573e-07)
(5.19501e-26 5.19501e-26 -3.54573e-07)
(1.98507e-24 4.02277e-24 -3.54573e-07)
(-0 -5.33275e-26 -3.54573e-07)
(-0 2.14576e-24 -3.54573e-07)
(-2.11928e-24 -1.09483e-25 -3.54573e-07)
(5.54625e-26 -2.03627e-24 -3.54573e-07)
(4.29475e-24 -5.61931e-26 -3.54573e-07)
(-2.26106e-24 -4.35132e-24 -3.54573e-07)
(-2.11779e-24 -2.17547e-24 -3.54573e-07)
(-5.84428e-26 -0 -3.54573e-07)
(5.92125e-26 4.58474e-24 -3.54573e-07)
(-5.99923e-26 4.52514e-24 -3.54573e-07)
(6.07825e-26 -4.7063e-24 -3.54573e-07)
(2.32256e-24 -2.26098e-24 -3.54573e-07)
(-2.41554e-24 2.35315e-24 -3.54573e-07)
(-2.38414e-24 -0 -3.54573e-07)
(4.95919e-24 -0 -3.54573e-07)
(2.38247e-24 -2.51225e-24 -3.54573e-07)
(-5.02493e-24 -2.47959e-24 -3.54573e-07)
(6.66127e-26 2.57886e-24 -3.54573e-07)
(-6.749e-26 -6.749e-26 -3.54573e-07)
(-2.57886e-24 -2.57886e-24 -3.54573e-07)
(-0 -0 -3.54573e-07)
(-0 -0 -3.54573e-07)
(-0 2.75323e-24 -3.54573e-07)
(-0 -7.20532e-26 -3.54573e-07)
(2.82623e-24 -5.57946e-24 -3.54573e-07)
(2.78949e-24 2.93742e-24 -3.54573e-07)
(-2.90117e-24 2.75129e-24 -3.54573e-07)
(-2.86345e-24 7.59249e-26 -3.54573e-07)
(-0 -7.69248e-26 -3.54573e-07)
(-0 -2.93938e-24 -3.54573e-07)
(6.11411e-24 6.11411e-24 -3.54573e-07)
(2.93731e-24 2.93731e-24 -3.54573e-07)
(-6.19517e-24 -6.19517e-24 -3.54573e-07)
(8.21259e-26 8.21259e-26 -3.54573e-07)
(6.35944e-24 -8.32077e-26 -3.54573e-07)
(-3.34805e-24 8.43035e-26 -3.54573e-07)
(-6.44264e-24 -8.54139e-26 -3.54573e-07)
(3.35029e-24 8.65388e-26 -3.54573e-07)
(3.30674e-24 -8.76785e-26 -3.54573e-07)
(-0 8.88335e-26 -3.54573e-07)
(-0 3.39441e-24 -3.54573e-07)
(3.53031e-24 3.53031e-24 -3.54573e-07)
(-9.23899e-26 -9.23899e-26 -3.54573e-07)
(3.71752e-24 9.36067e-26 -3.54573e-07)
(-3.86133e-24 -3.76649e-24 -3.54573e-07)
(-1.45918e-23 -1.09678e-23 -3.54573e-07)
(3.86636e-24 3.86636e-24 -3.54573e-07)
(-1.97273e-25 3.62137e-24 -3.54573e-07)
(1.99871e-25 9.99356e-26 -3.54573e-07)
(7.63729e-24 3.81864e-24 -3.54573e-07)
(-0 -0 -2.39452e-05)
)
;

boundaryField
{
    top
    {
        type            calculated;
        value           uniform (-0 -0 -0.000946163);
    }
    left
    {
        type            empty;
    }
    right
    {
        type            empty;
    }
    front
    {
        type            empty;
    }
    back
    {
        type            empty;
    }
    bottom
    {
        type            calculated;
        value           uniform (1.58861e-24 -0 -3.54573e-07);
    }
}


// ************************************************************************* //
