/*--------------------------------*- C++ -*----------------------------------*\
  =========                 |
  \\      /  F ield         | OpenFOAM: The Open Source CFD Toolbox
   \\    /   O peration     | Website:  https://openfoam.org
    \\  /    A nd           | Version:  7
     \\/     M anipulation  |
\*---------------------------------------------------------------------------*/
FoamFile
{
    version     2.0;
    format      ascii;
    class       volVectorField;
    location    "0.000";
    object      U;
}
// * * * * * * * * * * * * * * * * * * * * * * * * * * * * * * * * * * * * * //

dimensions      [0 1 -1 0 0 0 0];

internalField   nonuniform List<vector> 
124
(
(9.26086e-22 -0 -0.0002067)
(4.44906e-22 4.69142e-22 -0.0002067)
(-4.63043e-22 -1.22777e-23 -0.0002067)
(4.81581e-22 1.24394e-23 -0.0002067)
(4.75321e-22 9.63245e-22 -0.0002067)
(4.9435e-22 4.81581e-22 -0.0002067)
(-5.13799e-22 -1.00172e-21 -0.0002067)
(-4.81242e-22 -4.81242e-22 -0.0002067)
(-1.32804e-23 -1.32804e-23 -0.0002067)
(1.34553e-23 1.34553e-23 -0.0002067)
(5.14142e-22 5.14142e-22 -0.0002067)
(-0 -0 -0.0002067)
(-0 -0 -0.0002067)
(5.48904e-22 5.48904e-22 -0.0002067)
(-1.43651e-23 -1.43651e-23 -0.0002067)
(1.45543e-23 1.45543e-23 -0.0002067)
(-5.85625e-22 -1.4746e-23 -0.0002067)
(-1.12692e-21 -1.14186e-21 -0.0002067)
(1.17203e-21 6.01153e-22 -0.0002067)
(1.75053e-21 5.63062e-22 -0.0002067)
(-1.55383e-23 -5.86016e-22 -0.0002067)
(1.5743e-23 6.09478e-22 -0.0002067)
(-1.59503e-23 -1.59503e-23 -0.0002067)
(-6.09478e-22 1.61604e-23 -0.0002067)
(-1.26776e-21 -6.50251e-22 -0.0002067)
(-1.25128e-21 -1.25128e-21 -0.0002067)
(-0 -0 -0.0002067)
(1.31851e-21 6.59256e-22 -0.0002067)
(6.33432e-22 6.50685e-22 -0.0002067)
(-2.01273e-21 -6.76736e-22 -0.0002067)
(3.5421e-23 1.77105e-23 -0.0002067)
(1.35347e-21 6.76736e-22 -0.0002067)
(-0 -0 -0.0002067)
(-7.13099e-22 -7.13099e-22 -0.0002067)
(1.86621e-23 7.41153e-22 -0.0002067)
(7.13099e-22 6.94191e-22 -0.0002067)
(-7.41648e-22 -1.46414e-21 -0.0002067)
(7.70826e-22 7.70826e-22 -0.0002067)
(1.4833e-21 -3.93298e-23 -0.0002067)
(-1.54268e-21 -1.50283e-21 -0.0002067)
(-7.41127e-22 7.81499e-22 -0.0002067)
(1.56313e-21 7.7134e-22 -0.0002067)
(7.81499e-22 -0 -0.0002067)
(-1.62557e-21 -8.12787e-22 -0.0002067)
(-7.8095e-22 2.1271e-23 -0.0002067)
(8.12787e-22 8.12787e-22 -0.0002067)
(-8.45327e-22 -8.45327e-22 -0.0002067)
(2.21226e-23 2.21226e-23 -0.0002067)
(1.71307e-21 1.71307e-21 -0.0002067)
(-2.27092e-23 -2.27092e-23 -0.0002067)
(-1.75849e-21 -2.64924e-21 -0.0002067)
(-8.7917e-22 4.66227e-23 -0.0002067)
(1.82874e-21 1.7815e-21 -0.0002067)
(-4.78588e-23 -9.26411e-22 -0.0002067)
(-8.90123e-22 -9.14368e-22 -0.0002067)
(9.26411e-22 -0 -0.0002067)
(-0 9.635e-22 -0.0002067)
(-0 9.50975e-22 -0.0002067)
(-9.89047e-22 -9.89047e-22 -0.0002067)
(2.58838e-23 -9.7619e-22 -0.0002067)
(9.89047e-22 1.01527e-21 -0.0002067)
(-0 -2.65701e-23 -0.0002067)
(1.04219e-21 -1.01527e-21 -0.0002067)
(-2.72747e-23 1.05592e-21 -0.0002067)
(-1.04219e-21 -2.76339e-23 -0.0002067)
(-0 2.79978e-23 -0.0002067)
(1.09819e-21 2.16802e-21 -0.0002067)
(1.08392e-21 -2.87402e-23 -0.0002067)
(-0 -1.09819e-21 -0.0002067)
(-1.14216e-21 -0 -0.0002067)
(-2.28451e-21 -1.1572e-21 -0.0002067)
(3.02845e-23 3.02845e-23 -0.0002067)
(1.1572e-21 2.34509e-21 -0.0002067)
(-0 -3.10875e-23 -0.0002067)
(-0 1.25088e-21 -0.0002067)
(-1.23544e-21 -6.38237e-23 -0.0002067)
(3.23321e-23 -1.18705e-21 -0.0002067)
(2.50364e-21 -3.2758e-23 -0.0002067)
(-1.31809e-21 -2.53662e-21 -0.0002067)
(-1.23457e-21 -1.2682e-21 -0.0002067)
(-3.40694e-23 -0 -0.0002067)
(3.45182e-23 2.67269e-21 -0.0002067)
(-3.49728e-23 2.63795e-21 -0.0002067)
(3.54334e-23 -2.74356e-21 -0.0002067)
(1.35395e-21 -1.31805e-21 -0.0002067)
(-1.40815e-21 1.37178e-21 -0.0002067)
(-1.38985e-21 -0 -0.0002067)
(2.89098e-21 -0 -0.0002067)
(1.38887e-21 -1.46453e-21 -0.0002067)
(-2.92931e-21 -1.44549e-21 -0.0002067)
(3.88321e-23 1.50336e-21 -0.0002067)
(-3.93436e-23 -3.93436e-23 -0.0002067)
(-1.50336e-21 -1.50336e-21 -0.0002067)
(-0 -0 -0.0002067)
(-0 -0 -0.0002067)
(-0 1.605e-21 -0.0002067)
(-0 -4.20037e-23 -0.0002067)
(1.64756e-21 -3.25257e-21 -0.0002067)
(1.62614e-21 1.71238e-21 -0.0002067)
(-1.69125e-21 1.60388e-21 -0.0002067)
(-1.66926e-21 4.42607e-23 -0.0002067)
(-0 -4.48436e-23 -0.0002067)
(-0 -1.71352e-21 -0.0002067)
(3.56425e-21 3.56425e-21 -0.0002067)
(1.71232e-21 1.71232e-21 -0.0002067)
(-3.6115e-21 -3.6115e-21 -0.0002067)
(4.78756e-23 4.78756e-23 -0.0002067)
(3.70726e-21 -4.85063e-23 -0.0002067)
(-1.95176e-21 4.91451e-23 -0.0002067)
(-3.75577e-21 -4.97924e-23 -0.0002067)
(1.95306e-21 5.04481e-23 -0.0002067)
(1.92767e-21 -5.11126e-23 -0.0002067)
(-0 5.17859e-23 -0.0002067)
(-0 1.97879e-21 -0.0002067)
(2.05801e-21 2.05801e-21 -0.0002067)
(-5.38591e-23 -5.38591e-23 -0.0002067)
(2.16715e-21 5.45684e-23 -0.0002067)
(-2.25098e-21 -2.19569e-21 -0.0002067)
(-8.50632e-21 -6.39375e-21 -0.0002067)
(2.25391e-21 2.25391e-21 -0.0002067)
(-1.15001e-22 2.11109e-21 -0.0002067)
(1.16516e-22 5.82579e-23 -0.0002067)
(4.45219e-21 2.22609e-21 -0.0002067)
(-0 -0 -0.0125837)
)
;

boundaryField
{
    top
    {
        type            calculated;
        value           uniform (-0 -0 -0.0187318);
    }
    left
    {
        type            empty;
    }
    right
    {
        type            empty;
    }
    front
    {
        type            empty;
    }
    back
    {
        type            empty;
    }
    bottom
    {
        type            calculated;
        value           uniform (9.26086e-22 -0 -0.0002067);
    }
}


// ************************************************************************* //
