/*--------------------------------*- C++ -*----------------------------------*\
  =========                 |
  \\      /  F ield         | OpenFOAM: The Open Source CFD Toolbox
   \\    /   O peration     | Website:  https://openfoam.org
    \\  /    A nd           | Version:  7
     \\/     M anipulation  |
\*---------------------------------------------------------------------------*/
FoamFile
{
    version     2.0;
    format      ascii;
    class       volScalarField;
    location    "1728000.000";
    object      capillarity;
}
// * * * * * * * * * * * * * * * * * * * * * * * * * * * * * * * * * * * * * //

dimensions      [0 -1 0 0 0 0 0];

internalField   nonuniform List<scalar> 
200
(
2.48648
2.48648
2.48647
2.48646
2.48646
2.48645
2.48644
2.48643
2.48643
2.48642
2.48641
2.4864
2.48639
2.48638
2.48637
2.48636
2.48635
2.48634
2.48633
2.48633
2.48632
2.48631
2.4863
2.48629
2.48628
2.48627
2.48626
2.48625
2.48624
2.48624
2.48623
2.48622
2.48621
2.4862
2.48619
2.48618
2.48617
2.48616
2.48615
2.48615
2.48614
2.48613
2.48612
2.48611
2.4861
2.48609
2.48608
2.48607
2.48607
2.48606
2.48605
2.48604
2.48603
2.48602
2.48601
2.486
2.486
2.48599
2.48598
2.48597
2.48596
2.48595
2.48594
2.48594
2.48593
2.48592
2.48591
2.4859
2.48589
2.48589
2.48588
2.48587
2.48586
2.48585
2.48585
2.48584
2.48583
2.48582
2.48581
2.48581
2.4858
2.48579
2.48578
2.48577
2.48577
2.48576
2.48575
2.48574
2.48574
2.48573
2.48572
2.48571
2.48571
2.4857
2.48569
2.48568
2.48568
2.48567
2.48566
2.48566
2.48565
2.48564
2.48564
2.48563
2.48562
2.48562
2.48561
2.48561
2.4856
2.48559
2.48559
2.48558
2.48558
2.48557
2.48557
2.48556
2.48556
2.48555
2.48555
2.48554
2.48554
2.48553
2.48553
2.48552
2.48552
2.48552
2.48551
2.48551
2.48551
2.4855
2.4855
2.4855
2.4855
2.48549
2.48549
2.48549
2.48549
2.48549
2.48549
2.48549
2.48549
2.48549
2.48549
2.48549
2.48549
2.48549
2.48549
2.4855
2.4855
2.4855
2.48551
2.48551
2.48552
2.48552
2.48553
2.48554
2.48555
2.48555
2.48556
2.48558
2.48559
2.4856
2.48561
2.48563
2.48565
2.48566
2.48568
2.4857
2.48573
2.48575
2.48578
2.48581
2.48584
2.48588
2.48592
2.48597
2.48601
2.48607
2.48613
2.4862
2.48627
2.48635
2.48645
2.48656
2.48668
2.48682
2.48698
2.48718
2.48741
2.48768
2.48802
2.48844
2.48898
2.48971
2.49075
2.49246
2.49592
2.50553
2.5407
2.715
)
;

boundaryField
{
    top
    {
        type            calculated;
        value           uniform 2.8458;
    }
    left
    {
        type            empty;
    }
    right
    {
        type            empty;
    }
    front
    {
        type            empty;
    }
    back
    {
        type            empty;
    }
    bottom
    {
        type            calculated;
        value           uniform 2.48648;
    }
}


// ************************************************************************* //
