/*--------------------------------*- C++ -*----------------------------------*\
  =========                 |
  \\      /  F ield         | OpenFOAM: The Open Source CFD Toolbox
   \\    /   O peration     | Website:  https://openfoam.org
    \\  /    A nd           | Version:  7
     \\/     M anipulation  |
\*---------------------------------------------------------------------------*/
FoamFile
{
    version     2.0;
    format      ascii;
    class       volScalarField;
    location    "1728000.000";
    object      DOC;
}
// * * * * * * * * * * * * * * * * * * * * * * * * * * * * * * * * * * * * * //

dimensions      [1 -3 0 0 0 0 0];

internalField   nonuniform List<scalar> 
200
(
0.000170274
0.000171709
0.000172671
0.000173645
0.00017462
0.000175607
0.000176594
0.000177593
0.000178594
0.000179606
0.000180619
0.000181645
0.000182672
0.00018371
0.00018475
0.000185803
0.000186857
0.000187923
0.000188991
0.000190071
0.000191152
0.000192247
0.000193343
0.000194452
0.000195562
0.000196686
0.000197811
0.00019895
0.00020009
0.000201243
0.000202399
0.000203568
0.00020474
0.000205924
0.000207111
0.000208311
0.000209515
0.000210731
0.000211951
0.000213183
0.00021442
0.000215669
0.000216922
0.000218189
0.000219459
0.000220742
0.00022203
0.000223331
0.000224637
0.000225956
0.000227279
0.000228616
0.000229958
0.000231313
0.000232674
0.000234048
0.000235428
0.000236821
0.00023822
0.000239632
0.000241051
0.000242483
0.000243922
0.000245374
0.000246833
0.000248306
0.000249786
0.00025128
0.00025278
0.000254296
0.000255818
0.000257355
0.000258899
0.000260457
0.000262024
0.000263605
0.000265194
0.000266798
0.00026841
0.000270037
0.000271673
0.000273324
0.000274983
0.000276659
0.000278342
0.000280042
0.000281751
0.000283476
0.00028521
0.000286961
0.000288721
0.000290498
0.000292284
0.000294087
0.0002959
0.000297731
0.000299571
0.000301429
0.000303298
0.000305184
0.000307081
0.000308996
0.000310923
0.000312867
0.000314823
0.000316797
0.000318783
0.000320788
0.000322805
0.00032484
0.000326889
0.000328956
0.000331037
0.000333137
0.00033525
0.000337383
0.00033953
0.000341696
0.000343877
0.000346078
0.000348293
0.000350529
0.00035278
0.000355051
0.000357338
0.000359646
0.000361969
0.000364314
0.000366674
0.000369057
0.000371455
0.000373876
0.000376313
0.000378772
0.000381248
0.000383746
0.000386262
0.0003888
0.000391355
0.000393934
0.00039653
0.000399148
0.000401785
0.000404445
0.000407122
0.000409822
0.000412541
0.000415282
0.000418041
0.000420822
0.000423622
0.000426443
0.000429282
0.000432144
0.000435022
0.000437921
0.000440837
0.000443773
0.000446725
0.000449697
0.000452683
0.000455688
0.000458706
0.000461741
0.000464787
0.000467849
0.00047092
0.000474005
0.000477097
0.000480199
0.000483307
0.000486422
0.000489538
0.000492658
0.000495776
0.000498893
0.000502004
0.000505109
0.000508205
0.000511287
0.000514353
0.000517399
0.000520421
0.000523414
0.000526371
0.000529287
0.000532152
0.000534957
0.00053769
0.000540337
0.00054288
0.0005453
0.00054758
0.000549714
0.000551733
0.000553732
0.000557968
0.000579487
0.000708706
0.00231929
)
;

boundaryField
{
    top
    {
        type            uniformInletOutlet;
        uniformInletValue constant 0.01;
        value           uniform 0.01;
    }
    left
    {
        type            empty;
    }
    right
    {
        type            empty;
    }
    front
    {
        type            empty;
    }
    back
    {
        type            empty;
    }
    bottom
    {
        type            zeroGradient;
    }
}


// ************************************************************************* //
