/*--------------------------------*- C++ -*----------------------------------*\
  =========                 |
  \\      /  F ield         | OpenFOAM: The Open Source CFD Toolbox
   \\    /   O peration     | Website:  https://openfoam.org
    \\  /    A nd           | Version:  7
     \\/     M anipulation  |
\*---------------------------------------------------------------------------*/
FoamFile
{
    version     2.0;
    format      ascii;
    class       volScalarField;
    location    "1728000.000";
    object      EPS;
}
// * * * * * * * * * * * * * * * * * * * * * * * * * * * * * * * * * * * * * //

dimensions      [1 -3 0 0 0 0 0];

internalField   nonuniform List<scalar> 
200
(
8.15209e-05
8.17028e-05
8.18451e-05
8.19898e-05
8.21352e-05
8.22833e-05
8.24326e-05
8.25847e-05
8.2738e-05
8.28943e-05
8.30519e-05
8.32125e-05
8.33746e-05
8.35398e-05
8.37067e-05
8.38767e-05
8.40485e-05
8.42236e-05
8.44007e-05
8.45812e-05
8.47638e-05
8.49499e-05
8.51384e-05
8.53305e-05
8.55251e-05
8.57235e-05
8.59245e-05
8.61296e-05
8.63376e-05
8.65497e-05
8.6765e-05
8.69846e-05
8.72075e-05
8.7435e-05
8.76661e-05
8.7902e-05
8.81418e-05
8.83866e-05
8.86355e-05
8.88898e-05
8.91485e-05
8.94128e-05
8.96818e-05
8.99568e-05
9.02368e-05
9.05231e-05
9.08149e-05
9.11132e-05
9.14174e-05
9.17286e-05
9.2046e-05
9.23709e-05
9.27024e-05
9.30418e-05
9.33883e-05
9.37432e-05
9.41057e-05
9.4477e-05
9.48565e-05
9.52454e-05
9.56431e-05
9.60507e-05
9.64677e-05
9.68952e-05
9.73327e-05
9.77815e-05
9.8241e-05
9.87124e-05
9.91953e-05
9.96908e-05
0.000100199
0.00010072
0.000101254
0.000101803
0.000102366
0.000102943
0.000103536
0.000104145
0.00010477
0.000105412
0.000106072
0.000106749
0.000107445
0.000108161
0.000108895
0.000109651
0.000110427
0.000111226
0.000112046
0.000112891
0.000113759
0.000114652
0.00011557
0.000116515
0.000117488
0.000118489
0.000119519
0.000120579
0.00012167
0.000122794
0.000123951
0.000125143
0.00012637
0.000127635
0.000128937
0.000130279
0.000131662
0.000133088
0.000134557
0.000136072
0.000137634
0.000139245
0.000140906
0.00014262
0.000144388
0.000146213
0.000148096
0.00015004
0.000152047
0.000154119
0.00015626
0.000158471
0.000160756
0.000163117
0.000165558
0.000168082
0.000170692
0.000173392
0.000176185
0.000179077
0.00018207
0.00018517
0.000188381
0.000191709
0.000195158
0.000198734
0.000202444
0.000206294
0.000210289
0.000214439
0.000218751
0.000223232
0.000227892
0.000232741
0.000237788
0.000243046
0.000248525
0.000254239
0.000260202
0.000266429
0.000272936
0.000279741
0.000286865
0.000294329
0.000302155
0.000310371
0.000319005
0.000328087
0.000337654
0.000347744
0.000358399
0.000369668
0.000381605
0.00039427
0.000407732
0.000422066
0.000437361
0.000453714
0.00047124
0.000490068
0.000510346
0.000532248
0.000555974
0.000581758
0.000609874
0.000640647
0.000674463
0.000711787
0.000753175
0.000799312
0.000851034
0.000909388
0.000975688
0.00105162
0.00113935
0.00124177
0.00136274
0.00150763
0.00168402
0.00190304
0.0021817
0.00254742
0.00304775
0.00377472
0.00494015
0.00716151
0.0127035
0.0310429
0.102955
0.446914
)
;

boundaryField
{
    top
    {
        type            zeroGradient;
    }
    left
    {
        type            empty;
    }
    right
    {
        type            empty;
    }
    front
    {
        type            empty;
    }
    back
    {
        type            empty;
    }
    bottom
    {
        type            zeroGradient;
    }
}


// ************************************************************************* //
