/*--------------------------------*- C++ -*----------------------------------*\
  =========                 |
  \\      /  F ield         | OpenFOAM: The Open Source CFD Toolbox
   \\    /   O peration     | Website:  https://openfoam.org
    \\  /    A nd           | Version:  7
     \\/     M anipulation  |
\*---------------------------------------------------------------------------*/
FoamFile
{
    version     2.0;
    format      ascii;
    class       volScalarField;
    location    "1728000.000";
    object      h;
}
// * * * * * * * * * * * * * * * * * * * * * * * * * * * * * * * * * * * * * //

dimensions      [0 1 0 0 0 0 0];

internalField   nonuniform List<scalar> 
200
(
-0.444563
-0.444563
-0.444563
-0.444563
-0.444563
-0.444564
-0.444564
-0.444564
-0.444565
-0.444565
-0.444565
-0.444565
-0.444566
-0.444566
-0.444566
-0.444567
-0.444567
-0.444567
-0.444568
-0.444568
-0.444568
-0.444569
-0.444569
-0.444569
-0.44457
-0.44457
-0.44457
-0.444571
-0.444571
-0.444571
-0.444572
-0.444572
-0.444572
-0.444573
-0.444573
-0.444573
-0.444574
-0.444574
-0.444574
-0.444575
-0.444575
-0.444575
-0.444576
-0.444576
-0.444576
-0.444577
-0.444577
-0.444577
-0.444578
-0.444578
-0.444578
-0.444579
-0.444579
-0.444579
-0.444579
-0.44458
-0.44458
-0.44458
-0.444581
-0.444581
-0.444581
-0.444582
-0.444582
-0.444582
-0.444583
-0.444583
-0.444583
-0.444584
-0.444584
-0.444584
-0.444584
-0.444585
-0.444585
-0.444585
-0.444586
-0.444586
-0.444586
-0.444586
-0.444587
-0.444587
-0.444587
-0.444588
-0.444588
-0.444588
-0.444588
-0.444589
-0.444589
-0.444589
-0.44459
-0.44459
-0.44459
-0.44459
-0.444591
-0.444591
-0.444591
-0.444591
-0.444592
-0.444592
-0.444592
-0.444592
-0.444593
-0.444593
-0.444593
-0.444593
-0.444594
-0.444594
-0.444594
-0.444594
-0.444595
-0.444595
-0.444595
-0.444595
-0.444595
-0.444596
-0.444596
-0.444596
-0.444596
-0.444596
-0.444596
-0.444597
-0.444597
-0.444597
-0.444597
-0.444597
-0.444597
-0.444598
-0.444598
-0.444598
-0.444598
-0.444598
-0.444598
-0.444598
-0.444598
-0.444598
-0.444598
-0.444598
-0.444599
-0.444599
-0.444599
-0.444599
-0.444599
-0.444599
-0.444599
-0.444599
-0.444598
-0.444598
-0.444598
-0.444598
-0.444598
-0.444598
-0.444598
-0.444598
-0.444597
-0.444597
-0.444597
-0.444597
-0.444596
-0.444596
-0.444596
-0.444595
-0.444595
-0.444595
-0.444594
-0.444593
-0.444593
-0.444592
-0.444591
-0.444591
-0.44459
-0.444589
-0.444588
-0.444587
-0.444586
-0.444584
-0.444583
-0.444581
-0.444579
-0.444577
-0.444575
-0.444573
-0.44457
-0.444567
-0.444564
-0.44456
-0.444555
-0.44455
-0.444544
-0.444537
-0.444529
-0.444519
-0.444507
-0.444491
-0.444472
-0.444445
-0.444407
-0.444345
-0.44422
-0.443872
-0.442605
-0.436471
)
;

boundaryField
{
    top
    {
        type            fixedValue;
        value           uniform -0.432;
    }
    left
    {
        type            empty;
    }
    right
    {
        type            empty;
    }
    front
    {
        type            empty;
    }
    back
    {
        type            empty;
    }
    bottom
    {
        type            fixedGradient;
        gradient        uniform 0;
    }
}


// ************************************************************************* //
