/*--------------------------------*- C++ -*----------------------------------*\
  =========                 |
  \\      /  F ield         | OpenFOAM: The Open Source CFD Toolbox
   \\    /   O peration     | Website:  https://openfoam.org
    \\  /    A nd           | Version:  7
     \\/     M anipulation  |
\*---------------------------------------------------------------------------*/
FoamFile
{
    version     2.0;
    format      ascii;
    class       volScalarField;
    location    "0.000";
    object      hydraulicCond;
}
// * * * * * * * * * * * * * * * * * * * * * * * * * * * * * * * * * * * * * //

dimensions      [0 1 -1 0 0 0 0];

internalField   nonuniform List<scalar> 
200
(
2.21746e-06
2.21746e-06
2.21746e-06
2.21746e-06
2.21746e-06
2.21739e-06
2.21739e-06
2.21739e-06
2.21731e-06
2.21731e-06
2.21731e-06
2.21731e-06
2.21721e-06
2.21721e-06
2.21721e-06
2.21714e-06
2.21714e-06
2.21714e-06
2.21706e-06
2.21706e-06
2.21706e-06
2.21699e-06
2.21699e-06
2.21699e-06
2.21692e-06
2.21692e-06
2.21692e-06
2.21684e-06
2.21684e-06
2.21684e-06
2.21677e-06
2.21677e-06
2.21677e-06
2.21667e-06
2.21667e-06
2.21667e-06
2.2166e-06
2.2166e-06
2.2166e-06
2.21652e-06
2.21652e-06
2.21652e-06
2.21645e-06
2.21645e-06
2.21645e-06
2.21638e-06
2.21638e-06
2.21635e-06
2.21628e-06
2.21628e-06
2.21628e-06
2.2162e-06
2.2162e-06
2.2162e-06
2.2162e-06
2.21613e-06
2.21613e-06
2.21613e-06
2.21606e-06
2.21603e-06
2.21603e-06
2.21596e-06
2.21596e-06
2.21596e-06
2.21588e-06
2.21588e-06
2.21588e-06
2.21578e-06
2.21578e-06
2.21578e-06
2.21578e-06
2.21571e-06
2.21571e-06
2.21571e-06
2.21564e-06
2.21561e-06
2.21561e-06
2.21561e-06
2.21554e-06
2.21554e-06
2.21554e-06
2.21544e-06
2.21544e-06
2.21544e-06
2.21544e-06
2.21537e-06
2.21534e-06
2.21534e-06
2.21527e-06
2.21527e-06
2.21527e-06
2.21524e-06
2.21517e-06
2.21517e-06
2.21517e-06
2.21514e-06
2.21507e-06
2.21507e-06
2.21504e-06
2.21504e-06
2.21497e-06
2.21497e-06
2.21494e-06
2.21494e-06
2.21487e-06
2.21484e-06
2.21484e-06
2.21482e-06
2.21474e-06
2.21474e-06
2.21472e-06
2.21472e-06
2.21469e-06
2.21462e-06
2.21462e-06
2.21459e-06
2.21459e-06
2.21457e-06
2.21457e-06
2.21447e-06
2.21444e-06
2.21444e-06
2.21442e-06
2.21442e-06
2.21439e-06
2.21429e-06
2.21429e-06
2.21427e-06
2.21424e-06
2.21424e-06
2.21421e-06
2.21419e-06
2.21416e-06
2.21416e-06
2.21414e-06
2.21411e-06
2.21401e-06
2.21399e-06
2.21396e-06
2.21394e-06
2.21391e-06
2.21388e-06
2.21386e-06
2.21381e-06
2.21385e-06
2.21383e-06
2.2138e-06
2.21375e-06
2.21373e-06
2.21367e-06
2.21365e-06
2.2136e-06
2.21362e-06
2.21357e-06
2.21354e-06
2.21349e-06
2.21351e-06
2.21344e-06
2.21338e-06
2.21341e-06
2.21333e-06
2.21328e-06
2.21327e-06
2.21327e-06
2.21319e-06
2.21316e-06
2.21316e-06
2.21306e-06
2.21303e-06
2.213e-06
2.21294e-06
2.21289e-06
2.21283e-06
2.21283e-06
2.21274e-06
2.21271e-06
2.21265e-06
2.21259e-06
2.21251e-06
2.2124e-06
2.21231e-06
2.2122e-06
2.21206e-06
2.21194e-06
2.21182e-06
2.21162e-06
2.21139e-06
2.21111e-06
2.21074e-06
2.21029e-06
2.20968e-06
2.20893e-06
2.2077e-06
2.2059e-06
2.20261e-06
2.19546e-06
2.17481e-06
2.10145e-06
1.82594e-06
9.16692e-07
)
;

boundaryField
{
    top
    {
        type            calculated;
        value           uniform 1.06236e-06;
    }
    left
    {
        type            empty;
    }
    right
    {
        type            empty;
    }
    front
    {
        type            empty;
    }
    back
    {
        type            empty;
    }
    bottom
    {
        type            calculated;
        value           uniform 2.21746e-06;
    }
}


// ************************************************************************* //
