/*--------------------------------*- C++ -*----------------------------------*\
  =========                 |
  \\      /  F ield         | OpenFOAM: The Open Source CFD Toolbox
   \\    /   O peration     | Website:  https://openfoam.org
    \\  /    A nd           | Version:  7
     \\/     M anipulation  |
\*---------------------------------------------------------------------------*/
FoamFile
{
    version     2.0;
    format      ascii;
    class       volScalarField;
    location    "1728000.000";
    object      NH4;
}
// * * * * * * * * * * * * * * * * * * * * * * * * * * * * * * * * * * * * * //

dimensions      [1 -3 0 0 0 0 0];

internalField   nonuniform List<scalar> 
200
(
4.84849e-06
4.85193e-06
4.85422e-06
4.85648e-06
4.85874e-06
4.86098e-06
4.86321e-06
4.86542e-06
4.86762e-06
4.8698e-06
4.87197e-06
4.87412e-06
4.87626e-06
4.87839e-06
4.8805e-06
4.88259e-06
4.88467e-06
4.88673e-06
4.88878e-06
4.89081e-06
4.89283e-06
4.89482e-06
4.89681e-06
4.89877e-06
4.90073e-06
4.90266e-06
4.90458e-06
4.90648e-06
4.90836e-06
4.91023e-06
4.91209e-06
4.91392e-06
4.91574e-06
4.91755e-06
4.91934e-06
4.92111e-06
4.92286e-06
4.9246e-06
4.92633e-06
4.92804e-06
4.92973e-06
4.93141e-06
4.93307e-06
4.93472e-06
4.93636e-06
4.93798e-06
4.93959e-06
4.94119e-06
4.94277e-06
4.94434e-06
4.9459e-06
4.94744e-06
4.94898e-06
4.9505e-06
4.95202e-06
4.95353e-06
4.95503e-06
4.95652e-06
4.958e-06
4.95948e-06
4.96096e-06
4.96243e-06
4.9639e-06
4.96536e-06
4.96682e-06
4.96829e-06
4.96975e-06
4.97122e-06
4.9727e-06
4.97417e-06
4.97566e-06
4.97715e-06
4.97866e-06
4.98017e-06
4.9817e-06
4.98325e-06
4.98481e-06
4.98639e-06
4.988e-06
4.98963e-06
4.99128e-06
4.99297e-06
4.99468e-06
4.99643e-06
4.99822e-06
5.00005e-06
5.00192e-06
5.00384e-06
5.0058e-06
5.00782e-06
5.0099e-06
5.01204e-06
5.01424e-06
5.01651e-06
5.01886e-06
5.02128e-06
5.02378e-06
5.02637e-06
5.02906e-06
5.03184e-06
5.03473e-06
5.03772e-06
5.04083e-06
5.04406e-06
5.04742e-06
5.05092e-06
5.05455e-06
5.05834e-06
5.06229e-06
5.0664e-06
5.07069e-06
5.07516e-06
5.07982e-06
5.08469e-06
5.08977e-06
5.09508e-06
5.10062e-06
5.10641e-06
5.11247e-06
5.11879e-06
5.12541e-06
5.13233e-06
5.13957e-06
5.14714e-06
5.15506e-06
5.16336e-06
5.17205e-06
5.18115e-06
5.19067e-06
5.20066e-06
5.21112e-06
5.22209e-06
5.23359e-06
5.24566e-06
5.25831e-06
5.27159e-06
5.28553e-06
5.30017e-06
5.31555e-06
5.33171e-06
5.3487e-06
5.36656e-06
5.38536e-06
5.40514e-06
5.42596e-06
5.44791e-06
5.47104e-06
5.49543e-06
5.52117e-06
5.54834e-06
5.57705e-06
5.6074e-06
5.63951e-06
5.67351e-06
5.70953e-06
5.74772e-06
5.78826e-06
5.83133e-06
5.87712e-06
5.92587e-06
5.97781e-06
6.03323e-06
6.09242e-06
6.15574e-06
6.22356e-06
6.29631e-06
6.37448e-06
6.45861e-06
6.54932e-06
6.64733e-06
6.75345e-06
6.86862e-06
6.99391e-06
7.13061e-06
7.2802e-06
7.44441e-06
7.62535e-06
7.82551e-06
8.04791e-06
8.29624e-06
8.57507e-06
8.89008e-06
9.24848e-06
9.65953e-06
1.01353e-05
1.06919e-05
1.13513e-05
1.21439e-05
1.31134e-05
1.4325e-05
1.58792e-05
1.79394e-05
2.07874e-05
2.49461e-05
3.14703e-05
4.26976e-05
6.42861e-05
0.000110553
0.000208326
0.000546481
)
;

boundaryField
{
    top
    {
        type            uniformInletOutlet;
        uniformInletValue constant 0.001;
        value           uniform 0.001;
    }
    left
    {
        type            empty;
    }
    right
    {
        type            empty;
    }
    front
    {
        type            empty;
    }
    back
    {
        type            empty;
    }
    bottom
    {
        type            zeroGradient;
    }
}


// ************************************************************************* //
