/*--------------------------------*- C++ -*----------------------------------*\
  =========                 |
  \\      /  F ield         | OpenFOAM: The Open Source CFD Toolbox
   \\    /   O peration     | Website:  https://openfoam.org
    \\  /    A nd           | Version:  7
     \\/     M anipulation  |
\*---------------------------------------------------------------------------*/
FoamFile
{
    version     2.0;
    format      ascii;
    class       volScalarField;
    location    "1728000.000";
    object      NO3;
}
// * * * * * * * * * * * * * * * * * * * * * * * * * * * * * * * * * * * * * //

dimensions      [1 -3 0 0 0 0 0];

internalField   nonuniform List<scalar> 
200
(
0.00240626
0.00240642
0.00240653
0.00240664
0.00240676
0.00240687
0.00240698
0.0024071
0.00240722
0.00240733
0.00240745
0.00240757
0.00240769
0.00240781
0.00240794
0.00240806
0.00240819
0.00240832
0.00240845
0.00240858
0.00240871
0.00240884
0.00240898
0.00240911
0.00240925
0.00240939
0.00240953
0.00240967
0.00240981
0.00240995
0.0024101
0.00241025
0.0024104
0.00241054
0.0024107
0.00241085
0.002411
0.00241116
0.00241132
0.00241147
0.00241164
0.0024118
0.00241196
0.00241213
0.00241229
0.00241246
0.00241263
0.0024128
0.00241298
0.00241315
0.00241333
0.00241351
0.00241369
0.00241387
0.00241405
0.00241424
0.00241443
0.00241461
0.00241481
0.002415
0.00241519
0.00241539
0.00241559
0.00241579
0.00241599
0.00241619
0.0024164
0.00241661
0.00241682
0.00241703
0.00241724
0.00241746
0.00241768
0.0024179
0.00241812
0.00241834
0.00241857
0.0024188
0.00241903
0.00241926
0.0024195
0.00241973
0.00241997
0.00242021
0.00242046
0.0024207
0.00242095
0.0024212
0.00242145
0.00242171
0.00242197
0.00242223
0.00242249
0.00242276
0.00242302
0.00242329
0.00242357
0.00242384
0.00242412
0.0024244
0.00242468
0.00242497
0.00242526
0.00242555
0.00242584
0.00242614
0.00242643
0.00242674
0.00242704
0.00242735
0.00242766
0.00242797
0.00242829
0.00242861
0.00242893
0.00242925
0.00242958
0.00242991
0.00243025
0.00243058
0.00243092
0.00243127
0.00243161
0.00243196
0.00243231
0.00243267
0.00243303
0.00243339
0.00243376
0.00243412
0.0024345
0.00243487
0.00243525
0.00243563
0.00243602
0.0024364
0.0024368
0.00243719
0.00243759
0.00243799
0.0024384
0.0024388
0.00243922
0.00243963
0.00244005
0.00244047
0.00244089
0.00244132
0.00244175
0.00244218
0.00244262
0.00244305
0.0024435
0.00244394
0.00244438
0.00244483
0.00244528
0.00244573
0.00244619
0.00244664
0.00244709
0.00244755
0.00244801
0.00244846
0.00244892
0.00244937
0.00244982
0.00245027
0.00245072
0.00245117
0.00245161
0.00245204
0.00245247
0.00245289
0.0024533
0.00245369
0.00245408
0.00245445
0.0024548
0.00245512
0.00245542
0.00245569
0.00245592
0.0024561
0.00245623
0.00245629
0.0024563
0.0024561
0.00245583
0.00245526
0.00245445
0.00245311
0.00245113
0.0024478
0.00244205
0.00243012
0.00240026
0.00230985
0.00214764
0.00227875
)
;

boundaryField
{
    top
    {
        type            uniformInletOutlet;
        uniformInletValue constant 0.002;
        value           uniform 0.002;
    }
    left
    {
        type            empty;
    }
    right
    {
        type            empty;
    }
    front
    {
        type            empty;
    }
    back
    {
        type            empty;
    }
    bottom
    {
        type            zeroGradient;
    }
}


// ************************************************************************* //
