/*--------------------------------*- C++ -*----------------------------------*\
  =========                 |
  \\      /  F ield         | OpenFOAM: The Open Source CFD Toolbox
   \\    /   O peration     | Website:  https://openfoam.org
    \\  /    A nd           | Version:  7
     \\/     M anipulation  |
\*---------------------------------------------------------------------------*/
FoamFile
{
    version     2.0;
    format      ascii;
    class       volScalarField;
    location    "1728000.000";
    object      O2;
}
// * * * * * * * * * * * * * * * * * * * * * * * * * * * * * * * * * * * * * //

dimensions      [1 -3 0 0 0 0 0];

internalField   nonuniform List<scalar> 
200
(
0.00512933
0.00512933
0.00512934
0.00512935
0.00512935
0.00512935
0.00512936
0.00512936
0.00512937
0.00512937
0.00512937
0.00512938
0.00512938
0.00512939
0.00512939
0.00512939
0.0051294
0.0051294
0.00512941
0.00512941
0.00512941
0.00512942
0.00512942
0.00512942
0.00512943
0.00512943
0.00512943
0.00512944
0.00512944
0.00512944
0.00512945
0.00512945
0.00512945
0.00512945
0.00512946
0.00512946
0.00512946
0.00512946
0.00512946
0.00512947
0.00512947
0.00512947
0.00512947
0.00512947
0.00512947
0.00512948
0.00512948
0.00512948
0.00512948
0.00512948
0.00512948
0.00512948
0.00512948
0.00512948
0.00512948
0.00512948
0.00512947
0.00512947
0.00512947
0.00512947
0.00512947
0.00512946
0.00512946
0.00512946
0.00512945
0.00512945
0.00512945
0.00512944
0.00512943
0.00512943
0.00512942
0.00512942
0.00512941
0.0051294
0.00512939
0.00512938
0.00512937
0.00512936
0.00512935
0.00512934
0.00512932
0.00512931
0.00512929
0.00512928
0.00512926
0.00512924
0.00512922
0.0051292
0.00512918
0.00512916
0.00512913
0.0051291
0.00512907
0.00512904
0.00512901
0.00512897
0.00512894
0.0051289
0.00512885
0.00512881
0.00512876
0.00512871
0.00512865
0.00512859
0.00512853
0.00512846
0.00512839
0.00512831
0.00512823
0.00512814
0.00512804
0.00512794
0.00512783
0.00512771
0.00512759
0.00512745
0.00512731
0.00512715
0.00512699
0.00512681
0.00512661
0.00512641
0.00512619
0.00512595
0.00512569
0.00512541
0.00512512
0.0051248
0.00512445
0.00512408
0.00512368
0.00512325
0.00512278
0.00512228
0.00512174
0.00512116
0.00512053
0.00511985
0.00511912
0.00511833
0.00511747
0.00511655
0.00511556
0.00511448
0.00511332
0.00511206
0.0051107
0.00510923
0.00510764
0.00510592
0.00510406
0.00510205
0.00509987
0.00509752
0.00509497
0.00509221
0.00508923
0.00508599
0.00508249
0.0050787
0.0050746
0.00507015
0.00506534
0.00506012
0.00505447
0.00504835
0.00504172
0.00503453
0.00502674
0.0050183
0.00500915
0.00499923
0.00498849
0.00497684
0.00496421
0.00495052
0.00493568
0.0049196
0.00490217
0.00488329
0.00486283
0.00484067
0.00481667
0.00479071
0.00476265
0.00473233
0.00469964
0.00466446
0.00462672
0.00458643
0.00454373
0.0044992
0.00445486
0.00441235
0.00437546
0.00434975
0.00434032
0.00438118
0.00441524
0.0074832
)
;

boundaryField
{
    top
    {
        type            uniformInletOutlet;
        uniformInletValue constant 0.009;
        value           uniform 0.009;
    }
    left
    {
        type            empty;
    }
    right
    {
        type            empty;
    }
    front
    {
        type            empty;
    }
    back
    {
        type            empty;
    }
    bottom
    {
        type            zeroGradient;
    }
}


// ************************************************************************* //
