/*--------------------------------*- C++ -*----------------------------------*\
  =========                 |
  \\      /  F ield         | OpenFOAM: The Open Source CFD Toolbox
   \\    /   O peration     | Website:  https://openfoam.org
    \\  /    A nd           | Version:  7
     \\/     M anipulation  |
\*---------------------------------------------------------------------------*/
FoamFile
{
    version     2.0;
    format      ascii;
    class       volScalarField;
    location    "1728000.000";
    object      perm_satu;
}
// * * * * * * * * * * * * * * * * * * * * * * * * * * * * * * * * * * * * * //

dimensions      [0 0 0 0 0 0 0];

internalField   nonuniform List<scalar> 
200
(
0.0107317
0.0107316
0.0107316
0.0107315
0.0107314
0.0107313
0.0107312
0.0107311
0.010731
0.0107309
0.0107308
0.0107306
0.0107305
0.0107304
0.0107303
0.0107302
0.0107301
0.0107299
0.0107298
0.0107297
0.0107296
0.0107295
0.0107293
0.0107292
0.0107291
0.010729
0.0107289
0.0107288
0.0107286
0.0107285
0.0107284
0.0107283
0.0107282
0.0107281
0.0107279
0.0107278
0.0107277
0.0107276
0.0107275
0.0107274
0.0107272
0.0107271
0.010727
0.0107269
0.0107268
0.0107267
0.0107266
0.0107264
0.0107263
0.0107262
0.0107261
0.010726
0.0107259
0.0107258
0.0107257
0.0107255
0.0107254
0.0107253
0.0107252
0.0107251
0.010725
0.0107249
0.0107248
0.0107247
0.0107245
0.0107244
0.0107243
0.0107242
0.0107241
0.010724
0.0107239
0.0107238
0.0107237
0.0107236
0.0107235
0.0107234
0.0107233
0.0107232
0.0107231
0.010723
0.0107229
0.0107228
0.0107227
0.0107226
0.0107225
0.0107224
0.0107223
0.0107222
0.0107221
0.010722
0.0107219
0.0107218
0.0107217
0.0107216
0.0107215
0.0107214
0.0107213
0.0107212
0.0107211
0.010721
0.010721
0.0107209
0.0107208
0.0107207
0.0107206
0.0107205
0.0107205
0.0107204
0.0107203
0.0107202
0.0107202
0.0107201
0.01072
0.0107199
0.0107199
0.0107198
0.0107197
0.0107197
0.0107196
0.0107195
0.0107195
0.0107194
0.0107194
0.0107193
0.0107193
0.0107192
0.0107192
0.0107191
0.0107191
0.0107191
0.010719
0.010719
0.010719
0.0107189
0.0107189
0.0107189
0.0107189
0.0107189
0.0107189
0.0107188
0.0107188
0.0107188
0.0107189
0.0107189
0.0107189
0.0107189
0.0107189
0.010719
0.010719
0.0107191
0.0107191
0.0107192
0.0107192
0.0107193
0.0107194
0.0107195
0.0107196
0.0107197
0.0107198
0.01072
0.0107201
0.0107203
0.0107205
0.0107207
0.0107209
0.0107211
0.0107214
0.0107217
0.010722
0.0107223
0.0107226
0.010723
0.0107235
0.0107239
0.0107245
0.010725
0.0107257
0.0107264
0.0107271
0.010728
0.010729
0.0107301
0.0107313
0.0107327
0.0107343
0.0107361
0.0107382
0.0107407
0.0107437
0.0107472
0.0107516
0.0107571
0.0107641
0.0107735
0.0107872
0.0108093
0.0108544
0.0109805
0.0114519
0.0140307
)
;

boundaryField
{
    top
    {
        type            calculated;
        value           uniform 0.0162603;
    }
    left
    {
        type            empty;
    }
    right
    {
        type            empty;
    }
    front
    {
        type            empty;
    }
    back
    {
        type            empty;
    }
    bottom
    {
        type            calculated;
        value           uniform 0.0107317;
    }
}


// ************************************************************************* //
