/*--------------------------------*- C++ -*----------------------------------*\
  =========                 |
  \\      /  F ield         | OpenFOAM: The Open Source CFD Toolbox
   \\    /   O peration     | Website:  https://openfoam.org
    \\  /    A nd           | Version:  7
     \\/     M anipulation  |
\*---------------------------------------------------------------------------*/
FoamFile
{
    version     2.0;
    format      ascii;
    class       surfaceScalarField;
    location    "1728000.000";
    object      phi;
}
// * * * * * * * * * * * * * * * * * * * * * * * * * * * * * * * * * * * * * //

dimensions      [0 3 -1 0 0 0 0];

internalField   nonuniform List<scalar> 
199
(
-8.86986e-08
-8.86974e-08
-8.86964e-08
-8.86954e-08
-8.86943e-08
-8.86933e-08
-8.86923e-08
-8.86912e-08
-8.86902e-08
-8.86892e-08
-8.86882e-08
-8.86871e-08
-8.86861e-08
-8.86851e-08
-8.86841e-08
-8.86831e-08
-8.8682e-08
-8.8681e-08
-8.868e-08
-8.8679e-08
-8.86779e-08
-8.86769e-08
-8.86759e-08
-8.86749e-08
-8.86739e-08
-8.86728e-08
-8.86718e-08
-8.86708e-08
-8.86698e-08
-8.86688e-08
-8.86677e-08
-8.86667e-08
-8.86657e-08
-8.86647e-08
-8.86637e-08
-8.86626e-08
-8.86616e-08
-8.86606e-08
-8.86596e-08
-8.86586e-08
-8.86576e-08
-8.86565e-08
-8.86555e-08
-8.86545e-08
-8.86535e-08
-8.86525e-08
-8.86515e-08
-8.86504e-08
-8.86494e-08
-8.86484e-08
-8.86474e-08
-8.86464e-08
-8.86454e-08
-8.86443e-08
-8.86433e-08
-8.86423e-08
-8.86413e-08
-8.86403e-08
-8.86393e-08
-8.86383e-08
-8.86372e-08
-8.86362e-08
-8.86352e-08
-8.86342e-08
-8.86332e-08
-8.86322e-08
-8.86312e-08
-8.86302e-08
-8.86291e-08
-8.86281e-08
-8.86271e-08
-8.86261e-08
-8.86251e-08
-8.86241e-08
-8.86231e-08
-8.86221e-08
-8.86211e-08
-8.86201e-08
-8.8619e-08
-8.8618e-08
-8.8617e-08
-8.8616e-08
-8.8615e-08
-8.8614e-08
-8.8613e-08
-8.8612e-08
-8.8611e-08
-8.861e-08
-8.8609e-08
-8.8608e-08
-8.86069e-08
-8.86059e-08
-8.86049e-08
-8.86039e-08
-8.86029e-08
-8.86019e-08
-8.86009e-08
-8.85999e-08
-8.85989e-08
-8.85979e-08
-8.85969e-08
-8.85959e-08
-8.85949e-08
-8.85939e-08
-8.85929e-08
-8.85919e-08
-8.85909e-08
-8.85899e-08
-8.85889e-08
-8.85879e-08
-8.85869e-08
-8.85859e-08
-8.85848e-08
-8.85838e-08
-8.85828e-08
-8.85818e-08
-8.85808e-08
-8.85798e-08
-8.85788e-08
-8.85778e-08
-8.85768e-08
-8.85758e-08
-8.85748e-08
-8.85738e-08
-8.85728e-08
-8.85718e-08
-8.85708e-08
-8.85698e-08
-8.85688e-08
-8.85678e-08
-8.85668e-08
-8.85658e-08
-8.85648e-08
-8.85638e-08
-8.85629e-08
-8.85619e-08
-8.85609e-08
-8.85599e-08
-8.85589e-08
-8.85579e-08
-8.85569e-08
-8.85559e-08
-8.85549e-08
-8.85539e-08
-8.85529e-08
-8.85519e-08
-8.85509e-08
-8.85499e-08
-8.85489e-08
-8.85479e-08
-8.85469e-08
-8.85459e-08
-8.85449e-08
-8.85439e-08
-8.85429e-08
-8.85419e-08
-8.8541e-08
-8.854e-08
-8.8539e-08
-8.8538e-08
-8.8537e-08
-8.8536e-08
-8.8535e-08
-8.8534e-08
-8.8533e-08
-8.8532e-08
-8.8531e-08
-8.853e-08
-8.85291e-08
-8.85281e-08
-8.85271e-08
-8.85261e-08
-8.85251e-08
-8.85241e-08
-8.85231e-08
-8.85222e-08
-8.85212e-08
-8.85202e-08
-8.85192e-08
-8.85183e-08
-8.85173e-08
-8.85163e-08
-8.85154e-08
-8.85144e-08
-8.85135e-08
-8.85127e-08
-8.85118e-08
-8.85111e-08
-8.85105e-08
-8.85101e-08
-8.85102e-08
-8.85115e-08
-8.85159e-08
-8.85312e-08
-8.85912e-08
-8.8846e-08
-8.99491e-08
-9.54557e-08
-8.30448e-08
)
;

boundaryField
{
    top
    {
        type            calculated;
        value           uniform -8.04935e-08;
    }
    left
    {
        type            empty;
        value           nonuniform 0();
    }
    right
    {
        type            empty;
        value           nonuniform 0();
    }
    front
    {
        type            empty;
        value           nonuniform 0();
    }
    back
    {
        type            empty;
        value           nonuniform 0();
    }
    bottom
    {
        type            calculated;
        value           uniform 8.86995e-08;
    }
}


// ************************************************************************* //
