/*--------------------------------*- C++ -*----------------------------------*\
  =========                 |
  \\      /  F ield         | OpenFOAM: The Open Source CFD Toolbox
   \\    /   O peration     | Website:  https://openfoam.org
    \\  /    A nd           | Version:  7
     \\/     M anipulation  |
\*---------------------------------------------------------------------------*/
FoamFile
{
    version     2.0;
    format      ascii;
    class       volScalarField;
    location    "1728000.000";
    object      porosity;
}
// * * * * * * * * * * * * * * * * * * * * * * * * * * * * * * * * * * * * * //

dimensions      [0 0 0 0 0 0 0];

internalField   nonuniform List<scalar> 
200
(
0.357971
0.357971
0.357971
0.357971
0.357971
0.357971
0.357971
0.357971
0.357971
0.357971
0.357971
0.357971
0.35797
0.35797
0.35797
0.35797
0.35797
0.35797
0.35797
0.35797
0.35797
0.35797
0.35797
0.35797
0.35797
0.35797
0.35797
0.35797
0.35797
0.35797
0.35797
0.35797
0.35797
0.357969
0.357969
0.357969
0.357969
0.357969
0.357969
0.357969
0.357969
0.357969
0.357969
0.357969
0.357969
0.357969
0.357969
0.357968
0.357968
0.357968
0.357968
0.357968
0.357968
0.357968
0.357968
0.357968
0.357968
0.357968
0.357968
0.357967
0.357967
0.357967
0.357967
0.357967
0.357967
0.357967
0.357967
0.357966
0.357966
0.357966
0.357966
0.357966
0.357966
0.357966
0.357966
0.357965
0.357965
0.357965
0.357965
0.357965
0.357965
0.357964
0.357964
0.357964
0.357964
0.357964
0.357963
0.357963
0.357963
0.357963
0.357963
0.357962
0.357962
0.357962
0.357962
0.357961
0.357961
0.357961
0.35796
0.35796
0.35796
0.35796
0.357959
0.357959
0.357959
0.357958
0.357958
0.357957
0.357957
0.357957
0.357956
0.357956
0.357955
0.357955
0.357955
0.357954
0.357954
0.357953
0.357953
0.357952
0.357951
0.357951
0.35795
0.35795
0.357949
0.357948
0.357948
0.357947
0.357946
0.357946
0.357945
0.357944
0.357943
0.357943
0.357942
0.357941
0.35794
0.357939
0.357938
0.357937
0.357936
0.357935
0.357934
0.357932
0.357931
0.35793
0.357929
0.357927
0.357926
0.357924
0.357923
0.357921
0.357919
0.357917
0.357916
0.357914
0.357912
0.357909
0.357907
0.357905
0.357902
0.3579
0.357897
0.357894
0.357891
0.357887
0.357884
0.35788
0.357876
0.357872
0.357867
0.357862
0.357857
0.357851
0.357845
0.357838
0.35783
0.357822
0.357813
0.357803
0.357791
0.357778
0.357764
0.357748
0.357729
0.357707
0.357681
0.35765
0.357613
0.357567
0.357509
0.357434
0.357332
0.357185
0.356949
0.356494
0.355333
0.351455
0.336592
0.27562
)
;

boundaryField
{
    top
    {
        type            zeroGradient;
    }
    left
    {
        type            empty;
    }
    right
    {
        type            empty;
    }
    front
    {
        type            empty;
    }
    back
    {
        type            empty;
    }
    bottom
    {
        type            zeroGradient;
    }
}


// ************************************************************************* //
