/*--------------------------------*- C++ -*----------------------------------*\
  =========                 |
  \\      /  F ield         | OpenFOAM: The Open Source CFD Toolbox
   \\    /   O peration     | Website:  https://openfoam.org
    \\  /    A nd           | Version:  7
     \\/     M anipulation  |
\*---------------------------------------------------------------------------*/
FoamFile
{
    version     2.0;
    format      ascii;
    class       volScalarField;
    location    "1728000.000";
    object      rDN;
}
// * * * * * * * * * * * * * * * * * * * * * * * * * * * * * * * * * * * * * //

dimensions      [0 0 -1 0 0 0 0];

internalField   nonuniform List<scalar> 
200
(
1.75201e-06
1.76463e-06
1.77307e-06
1.78161e-06
1.79013e-06
1.79875e-06
1.80736e-06
1.81606e-06
1.82475e-06
1.83353e-06
1.84231e-06
1.85118e-06
1.86004e-06
1.86899e-06
1.87794e-06
1.88697e-06
1.896e-06
1.90513e-06
1.91425e-06
1.92345e-06
1.93266e-06
1.94196e-06
1.95126e-06
1.96064e-06
1.97003e-06
1.9795e-06
1.98898e-06
1.99854e-06
2.00811e-06
2.01776e-06
2.02742e-06
2.03717e-06
2.04692e-06
2.05676e-06
2.0666e-06
2.07654e-06
2.08647e-06
2.0965e-06
2.10654e-06
2.11666e-06
2.12679e-06
2.137e-06
2.14723e-06
2.15755e-06
2.16787e-06
2.17828e-06
2.18871e-06
2.19922e-06
2.20974e-06
2.22035e-06
2.23097e-06
2.24168e-06
2.25241e-06
2.26322e-06
2.27405e-06
2.28496e-06
2.29589e-06
2.30691e-06
2.31795e-06
2.32907e-06
2.34021e-06
2.35143e-06
2.36268e-06
2.37401e-06
2.38537e-06
2.39681e-06
2.40827e-06
2.41982e-06
2.43139e-06
2.44305e-06
2.45473e-06
2.4665e-06
2.47829e-06
2.49017e-06
2.50208e-06
2.51407e-06
2.52609e-06
2.5382e-06
2.55034e-06
2.56256e-06
2.57481e-06
2.58715e-06
2.59951e-06
2.61197e-06
2.62446e-06
2.63703e-06
2.64964e-06
2.66233e-06
2.67506e-06
2.68788e-06
2.70073e-06
2.71367e-06
2.72664e-06
2.7397e-06
2.7528e-06
2.76599e-06
2.77922e-06
2.79254e-06
2.80589e-06
2.81934e-06
2.83282e-06
2.8464e-06
2.86001e-06
2.87372e-06
2.88747e-06
2.90131e-06
2.9152e-06
2.92918e-06
2.9432e-06
2.95732e-06
2.97148e-06
2.98574e-06
3.00005e-06
3.01445e-06
3.0289e-06
3.04344e-06
3.05804e-06
3.07273e-06
3.08748e-06
3.10232e-06
3.11723e-06
3.13223e-06
3.14728e-06
3.16244e-06
3.17766e-06
3.19298e-06
3.20836e-06
3.22385e-06
3.2394e-06
3.25506e-06
3.27079e-06
3.28663e-06
3.30254e-06
3.31856e-06
3.33466e-06
3.35087e-06
3.36717e-06
3.38358e-06
3.40008e-06
3.41671e-06
3.43342e-06
3.45027e-06
3.46722e-06
3.4843e-06
3.50149e-06
3.51883e-06
3.53628e-06
3.55388e-06
3.57161e-06
3.58951e-06
3.60754e-06
3.62575e-06
3.64412e-06
3.66268e-06
3.68141e-06
3.70036e-06
3.71949e-06
3.73886e-06
3.75845e-06
3.7783e-06
3.7984e-06
3.8188e-06
3.83947e-06
3.86048e-06
3.88182e-06
3.90354e-06
3.92564e-06
3.94818e-06
3.97117e-06
3.99467e-06
4.01869e-06
4.0433e-06
4.06854e-06
4.09447e-06
4.12114e-06
4.14864e-06
4.17702e-06
4.20637e-06
4.23679e-06
4.26838e-06
4.30123e-06
4.33547e-06
4.37123e-06
4.40863e-06
4.44782e-06
4.48894e-06
4.53214e-06
4.57749e-06
4.6251e-06
4.67491e-06
4.72677e-06
4.77996e-06
4.83234e-06
4.88167e-06
4.92301e-06
4.94721e-06
4.94795e-06
4.91764e-06
5.12639e-06
4.02115e-06
)
;

boundaryField
{
    top
    {
        type            calculated;
        value           uniform 4.29737e-06;
    }
    left
    {
        type            empty;
    }
    right
    {
        type            empty;
    }
    front
    {
        type            empty;
    }
    back
    {
        type            empty;
    }
    bottom
    {
        type            calculated;
        value           uniform 1.75201e-06;
    }
}


// ************************************************************************* //
