/*--------------------------------*- C++ -*----------------------------------*\
  =========                 |
  \\      /  F ield         | OpenFOAM: The Open Source CFD Toolbox
   \\    /   O peration     | Website:  https://openfoam.org
    \\  /    A nd           | Version:  7
     \\/     M anipulation  |
\*---------------------------------------------------------------------------*/
FoamFile
{
    version     2.0;
    format      ascii;
    class       volScalarField;
    location    "1728000.000";
    object      rH;
}
// * * * * * * * * * * * * * * * * * * * * * * * * * * * * * * * * * * * * * //

dimensions      [0 0 -1 0 0 0 0];

internalField   nonuniform List<scalar> 
200
(
5.71483e-08
5.76606e-08
5.80043e-08
5.83519e-08
5.86998e-08
5.90518e-08
5.9404e-08
5.97602e-08
6.01168e-08
6.04774e-08
6.08384e-08
6.12035e-08
6.15689e-08
6.19385e-08
6.23084e-08
6.26825e-08
6.30571e-08
6.34357e-08
6.38149e-08
6.41982e-08
6.45822e-08
6.49702e-08
6.53589e-08
6.57516e-08
6.61451e-08
6.65428e-08
6.69411e-08
6.73437e-08
6.7747e-08
6.81545e-08
6.85629e-08
6.89754e-08
6.93889e-08
6.98066e-08
7.02252e-08
7.06481e-08
7.1072e-08
7.15001e-08
7.19293e-08
7.23628e-08
7.27975e-08
7.32365e-08
7.36766e-08
7.41211e-08
7.45669e-08
7.50171e-08
7.54686e-08
7.59245e-08
7.63818e-08
7.68436e-08
7.73069e-08
7.77747e-08
7.8244e-08
7.87179e-08
7.91934e-08
7.96735e-08
8.01554e-08
8.06419e-08
8.11302e-08
8.16233e-08
8.21183e-08
8.2618e-08
8.31198e-08
8.36265e-08
8.41352e-08
8.46489e-08
8.51649e-08
8.56859e-08
8.62092e-08
8.67377e-08
8.72686e-08
8.78048e-08
8.83436e-08
8.88878e-08
8.94347e-08
8.99871e-08
9.05425e-08
9.11034e-08
9.16675e-08
9.22373e-08
9.28103e-08
9.33893e-08
9.39718e-08
9.45604e-08
9.51526e-08
9.57512e-08
9.63536e-08
9.69625e-08
9.75756e-08
9.81954e-08
9.88197e-08
9.94509e-08
1.00087e-07
1.0073e-07
1.01378e-07
1.02034e-07
1.02695e-07
1.03364e-07
1.04038e-07
1.04721e-07
1.0541e-07
1.06107e-07
1.06811e-07
1.07524e-07
1.08244e-07
1.08974e-07
1.09711e-07
1.10458e-07
1.11213e-07
1.11978e-07
1.12752e-07
1.13538e-07
1.14332e-07
1.15138e-07
1.15955e-07
1.16784e-07
1.17624e-07
1.18477e-07
1.19341e-07
1.2022e-07
1.21112e-07
1.22019e-07
1.2294e-07
1.23877e-07
1.24829e-07
1.25798e-07
1.26784e-07
1.27789e-07
1.28811e-07
1.29854e-07
1.30916e-07
1.32001e-07
1.33107e-07
1.34236e-07
1.3539e-07
1.36569e-07
1.37774e-07
1.39008e-07
1.40271e-07
1.41565e-07
1.4289e-07
1.4425e-07
1.45646e-07
1.4708e-07
1.48552e-07
1.50068e-07
1.51628e-07
1.53235e-07
1.54892e-07
1.56602e-07
1.58368e-07
1.60194e-07
1.62083e-07
1.64042e-07
1.66071e-07
1.6818e-07
1.7037e-07
1.72651e-07
1.75027e-07
1.77507e-07
1.80097e-07
1.82809e-07
1.8565e-07
1.88634e-07
1.9177e-07
1.95075e-07
1.98563e-07
2.02253e-07
2.06163e-07
2.10317e-07
2.14741e-07
2.19464e-07
2.24521e-07
2.29951e-07
2.35801e-07
2.42125e-07
2.48988e-07
2.56466e-07
2.6465e-07
2.73653e-07
2.83609e-07
2.94688e-07
3.07098e-07
3.21107e-07
3.37056e-07
3.55394e-07
3.76715e-07
4.01833e-07
4.31879e-07
4.68478e-07
5.14037e-07
5.72268e-07
6.49147e-07
7.547e-07
9.06372e-07
1.13416e-06
1.48687e-06
2.03839e-06
2.98432e-06
8.22707e-06
)
;

boundaryField
{
    top
    {
        type            calculated;
        value           uniform 2.37489e-05;
    }
    left
    {
        type            empty;
    }
    right
    {
        type            empty;
    }
    front
    {
        type            empty;
    }
    back
    {
        type            empty;
    }
    bottom
    {
        type            calculated;
        value           uniform 5.71483e-08;
    }
}


// ************************************************************************* //
