/*--------------------------------*- C++ -*----------------------------------*\
  =========                 |
  \\      /  F ield         | OpenFOAM: The Open Source CFD Toolbox
   \\    /   O peration     | Website:  https://openfoam.org
    \\  /    A nd           | Version:  7
     \\/     M anipulation  |
\*---------------------------------------------------------------------------*/
FoamFile
{
    version     2.0;
    format      ascii;
    class       volScalarField;
    location    "1728000.000";
    object      rN;
}
// * * * * * * * * * * * * * * * * * * * * * * * * * * * * * * * * * * * * * //

dimensions      [0 0 -1 0 0 0 0];

internalField   nonuniform List<scalar> 
200
(
5.67076e-07
5.67473e-07
5.67738e-07
5.68001e-07
5.68262e-07
5.68522e-07
5.6878e-07
5.69036e-07
5.6929e-07
5.69543e-07
5.69795e-07
5.70044e-07
5.70292e-07
5.70538e-07
5.70782e-07
5.71024e-07
5.71265e-07
5.71504e-07
5.71741e-07
5.71976e-07
5.72209e-07
5.72441e-07
5.7267e-07
5.72898e-07
5.73124e-07
5.73348e-07
5.7357e-07
5.7379e-07
5.74008e-07
5.74225e-07
5.74439e-07
5.74652e-07
5.74863e-07
5.75071e-07
5.75278e-07
5.75483e-07
5.75687e-07
5.75888e-07
5.76088e-07
5.76285e-07
5.76482e-07
5.76676e-07
5.76868e-07
5.77059e-07
5.77249e-07
5.77436e-07
5.77622e-07
5.77807e-07
5.7799e-07
5.78171e-07
5.78352e-07
5.78531e-07
5.78708e-07
5.78885e-07
5.7906e-07
5.79234e-07
5.79408e-07
5.7958e-07
5.79752e-07
5.79923e-07
5.80093e-07
5.80263e-07
5.80433e-07
5.80602e-07
5.80772e-07
5.80941e-07
5.8111e-07
5.8128e-07
5.8145e-07
5.81621e-07
5.81793e-07
5.81965e-07
5.82139e-07
5.82314e-07
5.82491e-07
5.82669e-07
5.8285e-07
5.83032e-07
5.83218e-07
5.83406e-07
5.83597e-07
5.83791e-07
5.8399e-07
5.84192e-07
5.84398e-07
5.84609e-07
5.84825e-07
5.85046e-07
5.85273e-07
5.85506e-07
5.85746e-07
5.85992e-07
5.86247e-07
5.86509e-07
5.86779e-07
5.87059e-07
5.87347e-07
5.87646e-07
5.87956e-07
5.88277e-07
5.8861e-07
5.88955e-07
5.89314e-07
5.89686e-07
5.90074e-07
5.90477e-07
5.90896e-07
5.91333e-07
5.91788e-07
5.92262e-07
5.92756e-07
5.93272e-07
5.93809e-07
5.9437e-07
5.94956e-07
5.95568e-07
5.96207e-07
5.96874e-07
5.97571e-07
5.983e-07
5.99062e-07
5.9986e-07
6.00693e-07
6.01566e-07
6.02478e-07
6.03434e-07
6.04434e-07
6.05481e-07
6.06578e-07
6.07727e-07
6.08931e-07
6.10193e-07
6.11517e-07
6.12904e-07
6.1436e-07
6.15887e-07
6.1749e-07
6.19173e-07
6.2094e-07
6.22797e-07
6.24748e-07
6.268e-07
6.28958e-07
6.31229e-07
6.33619e-07
6.36137e-07
6.3879e-07
6.41587e-07
6.44537e-07
6.47652e-07
6.50941e-07
6.54417e-07
6.58093e-07
6.61984e-07
6.66105e-07
6.70473e-07
6.75107e-07
6.80027e-07
6.85257e-07
6.90822e-07
6.96749e-07
7.03069e-07
7.09816e-07
7.17029e-07
7.2475e-07
7.33027e-07
7.41915e-07
7.51474e-07
7.61774e-07
7.72893e-07
7.84924e-07
7.97969e-07
8.12148e-07
8.27604e-07
8.44499e-07
8.63028e-07
8.83419e-07
9.05949e-07
9.3095e-07
9.58826e-07
9.90077e-07
1.02532e-06
1.06535e-06
1.11117e-06
1.16408e-06
1.22582e-06
1.29874e-06
1.3861e-06
1.49255e-06
1.62493e-06
1.79374e-06
2.01584e-06
2.31986e-06
2.75765e-06
3.43007e-06
4.54668e-06
6.55238e-06
1.0266e-05
1.57017e-05
2.15949e-05
)
;

boundaryField
{
    top
    {
        type            calculated;
        value           uniform 2.78628e-05;
    }
    left
    {
        type            empty;
    }
    right
    {
        type            empty;
    }
    front
    {
        type            empty;
    }
    back
    {
        type            empty;
    }
    bottom
    {
        type            calculated;
        value           uniform 5.67076e-07;
    }
}


// ************************************************************************* //
