/*--------------------------------*- C++ -*----------------------------------*\
  =========                 |
  \\      /  F ield         | OpenFOAM: The Open Source CFD Toolbox
   \\    /   O peration     | Website:  https://openfoam.org
    \\  /    A nd           | Version:  7
     \\/     M anipulation  |
\*---------------------------------------------------------------------------*/
FoamFile
{
    version     2.0;
    format      ascii;
    class       volScalarField;
    location    "1728000.000";
    object      Sa;
}
// * * * * * * * * * * * * * * * * * * * * * * * * * * * * * * * * * * * * * //

dimensions      [0 0 0 0 0 0 0];

internalField   nonuniform List<scalar> 
200
(
0.755248
0.755248
0.755249
0.755249
0.75525
0.755251
0.755251
0.755252
0.755253
0.755254
0.755254
0.755255
0.755256
0.755257
0.755258
0.755259
0.755259
0.75526
0.755261
0.755262
0.755263
0.755264
0.755264
0.755265
0.755266
0.755267
0.755268
0.755268
0.755269
0.75527
0.755271
0.755272
0.755272
0.755273
0.755274
0.755275
0.755276
0.755277
0.755277
0.755278
0.755279
0.75528
0.755281
0.755281
0.755282
0.755283
0.755284
0.755285
0.755285
0.755286
0.755287
0.755288
0.755289
0.755289
0.75529
0.755291
0.755292
0.755292
0.755293
0.755294
0.755295
0.755296
0.755296
0.755297
0.755298
0.755299
0.755299
0.7553
0.755301
0.755302
0.755302
0.755303
0.755304
0.755305
0.755305
0.755306
0.755307
0.755307
0.755308
0.755309
0.75531
0.75531
0.755311
0.755312
0.755312
0.755313
0.755314
0.755314
0.755315
0.755316
0.755317
0.755317
0.755318
0.755318
0.755319
0.75532
0.75532
0.755321
0.755322
0.755322
0.755323
0.755323
0.755324
0.755325
0.755325
0.755326
0.755326
0.755327
0.755327
0.755328
0.755329
0.755329
0.75533
0.75533
0.755331
0.755331
0.755331
0.755332
0.755332
0.755333
0.755333
0.755334
0.755334
0.755334
0.755335
0.755335
0.755335
0.755336
0.755336
0.755336
0.755336
0.755337
0.755337
0.755337
0.755337
0.755337
0.755337
0.755338
0.755338
0.755338
0.755338
0.755338
0.755338
0.755337
0.755337
0.755337
0.755337
0.755337
0.755336
0.755336
0.755336
0.755335
0.755335
0.755334
0.755334
0.755333
0.755332
0.755332
0.755331
0.75533
0.755329
0.755327
0.755326
0.755325
0.755323
0.755322
0.75532
0.755318
0.755316
0.755314
0.755311
0.755308
0.755305
0.755302
0.755298
0.755294
0.75529
0.755285
0.75528
0.755274
0.755267
0.755259
0.755251
0.755241
0.75523
0.755217
0.755202
0.755185
0.755164
0.755139
0.755109
0.755071
0.755022
0.754956
0.754861
0.754708
0.754394
0.753524
0.750327
0.734212
)
;

boundaryField
{
    top
    {
        type            calculated;
        value           uniform 0.721782;
    }
    left
    {
        type            empty;
    }
    right
    {
        type            empty;
    }
    front
    {
        type            empty;
    }
    back
    {
        type            empty;
    }
    bottom
    {
        type            calculated;
        value           uniform 0.755248;
    }
}


// ************************************************************************* //
