/*--------------------------------*- C++ -*----------------------------------*\
  =========                 |
  \\      /  F ield         | OpenFOAM: The Open Source CFD Toolbox
   \\    /   O peration     | Website:  https://openfoam.org
    \\  /    A nd           | Version:  7
     \\/     M anipulation  |
\*---------------------------------------------------------------------------*/
FoamFile
{
    version     2.0;
    format      ascii;
    class       volScalarField;
    location    "1728000.000";
    object      tracer;
}
// * * * * * * * * * * * * * * * * * * * * * * * * * * * * * * * * * * * * * //

dimensions      [1 -3 0 0 0 0 0];

internalField   nonuniform List<scalar> 
200
(
0.000910451
0.000910443
0.000910439
0.000910434
0.000910429
0.000910425
0.00091042
0.000910415
0.00091041
0.000910406
0.000910401
0.000910396
0.000910391
0.000910387
0.000910382
0.000910377
0.000910372
0.000910368
0.000910363
0.000910358
0.000910353
0.000910349
0.000910344
0.000910339
0.000910334
0.00091033
0.000910325
0.00091032
0.000910316
0.000910311
0.000910306
0.000910301
0.000910297
0.000910292
0.000910287
0.000910283
0.000910278
0.000910273
0.000910269
0.000910264
0.000910259
0.000910255
0.00091025
0.000910245
0.000910241
0.000910236
0.000910231
0.000910227
0.000910222
0.000910218
0.000910213
0.000910208
0.000910204
0.000910199
0.000910194
0.00091019
0.000910185
0.000910181
0.000910176
0.000910171
0.000910167
0.000910162
0.000910158
0.000910153
0.000910149
0.000910144
0.000910139
0.000910135
0.00091013
0.000910126
0.000910121
0.000910117
0.000910112
0.000910108
0.000910103
0.000910099
0.000910094
0.00091009
0.000910085
0.000910081
0.000910076
0.000910072
0.000910067
0.000910063
0.000910058
0.000910054
0.000910049
0.000910045
0.00091004
0.000910036
0.000910031
0.000910027
0.000910022
0.000910018
0.000910013
0.000910009
0.000910004
0.00091
0.000909996
0.000909991
0.000909987
0.000909982
0.000909978
0.000909973
0.000909969
0.000909965
0.00090996
0.000909956
0.000909951
0.000909947
0.000909943
0.000909938
0.000909934
0.000909929
0.000909925
0.000909921
0.000909916
0.000909912
0.000909908
0.000909903
0.000909899
0.000909895
0.00090989
0.000909886
0.000909882
0.000909877
0.000909873
0.000909869
0.000909864
0.00090986
0.000909856
0.000909851
0.000909847
0.000909843
0.000909838
0.000909834
0.00090983
0.000909825
0.000909821
0.000909817
0.000909813
0.000909808
0.000909804
0.0009098
0.000909795
0.000909791
0.000909787
0.000909783
0.000909778
0.000909774
0.00090977
0.000909766
0.000909761
0.000909757
0.000909753
0.000909749
0.000909744
0.00090974
0.000909736
0.000909732
0.000909728
0.000909723
0.000909719
0.000909715
0.000909711
0.000909706
0.000909702
0.000909698
0.000909694
0.00090969
0.000909685
0.000909681
0.000909677
0.000909673
0.000909669
0.000909664
0.00090966
0.000909656
0.000909652
0.000909647
0.000909643
0.000909639
0.000909634
0.000909629
0.000909625
0.00090962
0.000909614
0.000909608
0.000909601
0.000909592
0.00090958
0.000909561
0.000909526
0.000909443
0.000909183
0.000908183
0.000903944
0.00088593
0.000843296
0.000977275
)
;

boundaryField
{
    top
    {
        type            uniformInletOutlet;
        uniformInletValue constant 0.001;
        value           uniform 0.001;
    }
    left
    {
        type            empty;
    }
    right
    {
        type            empty;
    }
    front
    {
        type            empty;
    }
    back
    {
        type            empty;
    }
    bottom
    {
        type            zeroGradient;
    }
}


// ************************************************************************* //
