/*--------------------------------*- C++ -*----------------------------------*\
  =========                 |
  \\      /  F ield         | OpenFOAM: The Open Source CFD Toolbox
   \\    /   O peration     | Website:  https://openfoam.org
    \\  /    A nd           | Version:  7
     \\/     M anipulation  |
\*---------------------------------------------------------------------------*/
FoamFile
{
    version     2.0;
    format      ascii;
    class       volVectorField;
    location    "0.000";
    object      U;
}
// * * * * * * * * * * * * * * * * * * * * * * * * * * * * * * * * * * * * * //

dimensions      [0 1 -1 0 0 0 0];

internalField   nonuniform List<vector> 
200
(
(6.15468e-23 6.15468e-23 -2.21746e-06)
(6.15468e-23 6.15468e-23 -2.21746e-06)
(-6.15468e-23 -0 -2.21746e-06)
(-3.21154e-37 -6.15468e-23 -2.21746e-06)
(6.15438e-23 -6.15438e-23 -2.21735e-06)
(6.15417e-23 6.15417e-23 -2.21727e-06)
(-1.63988e-37 6.15448e-23 -2.21739e-06)
(-6.15417e-23 -0 -2.21727e-06)
(6.15397e-23 -0 -2.2172e-06)
(-6.15428e-23 -6.15428e-23 -2.21731e-06)
(-1.23086e-22 -6.15428e-23 -2.21731e-06)
(1.23079e-22 1.23079e-22 -2.2172e-06)
(1.23074e-22 1.23074e-22 -2.2171e-06)
(-1.8462e-22 -1.8462e-22 -2.21721e-06)
(-1.28003e-56 -1.28003e-56 -2.2171e-06)
(1.84605e-22 1.2307e-22 -2.21703e-06)
(-1.23076e-22 -1.23076e-22 -2.21714e-06)
(1.36635e-38 6.83174e-39 -2.21703e-06)
(6.15328e-23 6.15328e-23 -2.21695e-06)
(1.02478e-36 1.23072e-22 -2.21706e-06)
(6.15328e-23 -1.3663e-38 -2.21695e-06)
(-0 -1.23062e-22 -2.21688e-06)
(-1.84602e-22 -6.15339e-23 -2.21699e-06)
(-4.07145e-36 6.15308e-23 -2.21688e-06)
(2.46115e-22 1.23058e-22 -2.21681e-06)
(-1.23064e-22 -6.15318e-23 -2.21692e-06)
(-1.84586e-22 -1.23058e-22 -2.21681e-06)
(1.8458e-22 6.15267e-23 -2.21673e-06)
(-4.09871e-36 6.15298e-23 -2.21684e-06)
(-1.8458e-22 -1.23053e-22 -2.21673e-06)
(-0 -6.83061e-39 -2.21666e-06)
(-0 -6.89926e-37 -2.21677e-06)
(1.23049e-22 -6.89892e-37 -2.21666e-06)
(6.15219e-23 6.15219e-23 -2.21656e-06)
(-6.89895e-37 6.1525e-23 -2.21667e-06)
(-6.15219e-23 -6.8303e-39 -2.21656e-06)
(-1.2304e-22 -1.2304e-22 -2.21649e-06)
(1.84569e-22 6.15229e-23 -2.2166e-06)
(1.2304e-22 6.15199e-23 -2.21649e-06)
(-6.82985e-37 -6.82985e-37 -2.21641e-06)
(-1.23042e-22 -5.38807e-69 -2.21652e-06)
(-1.23036e-22 -6.15178e-23 -2.21641e-06)
(-6.89792e-37 -0 -2.21634e-06)
(-0 -0 -2.21645e-06)
(1.23032e-22 -0 -2.21634e-06)
(-6.8294e-37 -6.15137e-23 -2.21627e-06)
(-6.89804e-37 -6.89804e-37 -2.21638e-06)
(-6.1513e-23 -6.82932e-39 -2.21624e-06)
(-2.74529e-36 -1.37265e-36 -2.21617e-06)
(-1.37955e-36 -6.15141e-23 -2.21628e-06)
(-1.23022e-22 -6.1511e-23 -2.21617e-06)
(1.23018e-22 1.84527e-22 -2.21609e-06)
(1.07746e-68 -6.1512e-23 -2.2162e-06)
(-2.74534e-36 -4.09752e-36 -2.2162e-06)
(2.73155e-36 6.15089e-23 -2.21609e-06)
(-1.23014e-22 -6.15069e-23 -2.21602e-06)
(1.2302e-22 6.151e-23 -2.21613e-06)
(1.23014e-22 -0 -2.21602e-06)
(-0 6.15049e-23 -2.21595e-06)
(-0 6.15072e-23 -2.21603e-06)
(-0 -6.15041e-23 -2.21592e-06)
(-0 -6.15021e-23 -2.21585e-06)
(-0 6.15052e-23 -2.21596e-06)
(-1.23004e-22 -6.15021e-23 -2.21585e-06)
(-1.23e-22 -1.845e-22 -2.21577e-06)
(1.23006e-22 6.15031e-23 -2.21588e-06)
(2.7175e-36 6.15001e-23 -2.21577e-06)
(-1.22995e-22 4.73782e-58 -2.21567e-06)
(-0 -6.15004e-23 -2.21578e-06)
(-6.15004e-23 -6.15004e-23 -2.21578e-06)
(-2.7242e-36 6.14973e-23 -2.21567e-06)
(6.14953e-23 -0 -2.2156e-06)
(-0 -6.14983e-23 -2.21571e-06)
(-6.14953e-23 -1.18441e-58 -2.2156e-06)
(6.14932e-23 6.14932e-23 -2.21553e-06)
(1.84487e-22 1.22991e-22 -2.21561e-06)
(-6.14956e-23 -5.46191e-36 -2.21561e-06)
(-1.22985e-22 -6.14925e-23 -2.2155e-06)
(-0 -1.35854e-36 -2.21543e-06)
(-0 -6.14935e-23 -2.21554e-06)
(-0 -0 -2.21543e-06)
(6.14877e-23 6.14877e-23 -2.21533e-06)
(1.22982e-22 1.22982e-22 -2.21544e-06)
(5.46831e-36 5.46831e-36 -2.21544e-06)
(-1.22975e-22 -1.22975e-22 -2.21533e-06)
(-6.14857e-23 -6.14857e-23 -2.21525e-06)
(1.22976e-22 6.1488e-23 -2.21534e-06)
(2.75779e-36 1.37889e-36 -2.21523e-06)
(-6.14829e-23 -1.35154e-36 -2.21516e-06)
(1.22972e-22 6.1486e-23 -2.21527e-06)
(-6.1486e-23 -6.1486e-23 -2.21527e-06)
(-8.16377e-36 6.14822e-23 -2.21513e-06)
(2.73027e-36 6.14802e-23 -2.21506e-06)
(-1.22966e-22 -1.22966e-22 -2.21517e-06)
(-0 -4.08878e-36 -2.21517e-06)
(-0 6.82559e-39 -2.21503e-06)
(1.22955e-22 -2.73697e-36 -2.21496e-06)
(-2.73028e-36 -6.14805e-23 -2.21507e-06)
(-1.2296e-22 -6.14798e-23 -2.21504e-06)
(-0 6.14767e-23 -2.21493e-06)
(-6.14747e-23 -0 -2.21486e-06)
(1.22955e-22 1.22955e-22 -2.21497e-06)
(6.1477e-23 1.09205e-35 -2.21494e-06)
(-1.22948e-22 -1.22948e-22 -2.21483e-06)
(-6.14719e-23 -0 -2.21476e-06)
(6.14743e-23 6.14743e-23 -2.21484e-06)
(6.14743e-23 6.82501e-39 -2.21484e-06)
(-6.14705e-23 -6.14705e-23 -2.21471e-06)
(-6.14684e-23 -0 -2.21463e-06)
(1.22943e-22 6.14715e-23 -2.21474e-06)
(2.72985e-38 6.82463e-39 -2.21472e-06)
(-1.22942e-22 -6.14708e-23 -2.21472e-06)
(1.22934e-22 6.1467e-23 -2.21458e-06)
(-6.1465e-23 -2.72277e-36 -2.21451e-06)
(-6.1468e-23 -6.1468e-23 -2.21462e-06)
(2.72287e-36 -0 -2.21459e-06)
(6.14673e-23 6.14673e-23 -2.21459e-06)
(-0 -0 -2.21457e-06)
(5.44541e-36 2.72271e-36 -2.21446e-06)
(1.3647e-38 6.82352e-39 -2.21436e-06)
(-5.44538e-36 -2.72269e-36 -2.21444e-06)
(-5.44538e-36 -2.72269e-36 -2.21444e-06)
(-6.14624e-23 -6.14624e-23 -2.21442e-06)
(6.14624e-23 -0 -2.21442e-06)
(-0 -0 -2.21428e-06)
(-6.14559e-23 -0 -2.21418e-06)
(6.1459e-23 6.1459e-23 -2.21429e-06)
(6.14582e-23 6.82324e-39 -2.21427e-06)
(-5.4517e-36 -5.4517e-36 -2.21424e-06)
(-2.72926e-36 -2.72926e-36 -2.21424e-06)
(-6.14568e-23 -6.14568e-23 -2.21421e-06)
(-6.14561e-23 -0 -2.21419e-06)
(6.14554e-23 6.14554e-23 -2.21416e-06)
(6.14554e-23 -2.72917e-36 -2.21416e-06)
(-6.14547e-23 -0 -2.21414e-06)
(-6.14509e-23 -2.72214e-36 -2.214e-06)
(5.45769e-36 -6.14481e-23 -2.2139e-06)
(1.22901e-22 6.14505e-23 -2.21399e-06)
(-8.18675e-36 6.14498e-23 -2.21396e-06)
(-5.45777e-36 -0 -2.21394e-06)
(-2.72885e-36 -6.14483e-23 -2.21391e-06)
(-6.14476e-23 -6.14476e-23 -2.21388e-06)
(-0 -0 -2.21386e-06)
(6.14486e-23 6.14486e-23 -2.21392e-06)
(-6.14499e-23 6.82231e-39 -2.21397e-06)
(-6.14461e-23 -5.45069e-36 -2.21383e-06)
(1.22891e-22 6.14454e-23 -2.2138e-06)
(6.1444e-23 -0 -2.21375e-06)
(-1.22886e-22 -6.14432e-23 -2.21373e-06)
(-0 -0 -2.21367e-06)
(6.14411e-23 6.82133e-39 -2.21365e-06)
(-6.14427e-23 1.18329e-58 -2.21371e-06)
(-6.14434e-23 2.72863e-36 -2.21373e-06)
(6.14389e-23 -2.72843e-36 -2.21357e-06)
(1.84314e-22 1.22876e-22 -2.21354e-06)
(2.72847e-36 2.72847e-36 -2.2136e-06)
(-1.22881e-22 -1.22881e-22 -2.21362e-06)
(-6.14352e-23 -6.14352e-23 -2.21344e-06)
(-6.14368e-23 -0 -2.2135e-06)
(-5.45674e-36 -0 -2.21352e-06)
(6.14322e-23 -0 -2.21333e-06)
(-0 6.14339e-23 -2.21339e-06)
(6.14368e-23 6.14368e-23 -2.2135e-06)
(6.82051e-39 -0 -2.21338e-06)
(-2.72811e-36 -0 -2.2133e-06)
(6.22835e-69 -6.14338e-23 -2.21339e-06)
(-6.14306e-23 -6.14306e-23 -2.21327e-06)
(-0 -0 -2.21317e-06)
(1.2286e-22 1.2286e-22 -2.21325e-06)
(-6.14292e-23 -5.42873e-36 -2.21322e-06)
(-6.14277e-23 -6.14277e-23 -2.21316e-06)
(1.84278e-22 1.22852e-22 -2.21311e-06)
(2.72794e-36 -6.14277e-23 -2.21317e-06)
(-1.22855e-22 -1.22855e-22 -2.21316e-06)
(-6.14252e-23 -0 -2.21308e-06)
(-6.14274e-23 -0 -2.21315e-06)
(2.72103e-36 -0 -2.2131e-06)
(6.14241e-23 -0 -2.21304e-06)
(-0 -0 -2.21295e-06)
(1.22844e-22 6.14218e-23 -2.21295e-06)
(1.22845e-22 1.22845e-22 -2.21297e-06)
(-1.84258e-22 -6.14192e-23 -2.21286e-06)
(-1.22837e-22 -6.14184e-23 -2.21283e-06)
(-2.72083e-36 -2.72083e-36 -2.21293e-06)
(1.22842e-22 6.1421e-23 -2.21292e-06)
(6.14185e-23 -1.36376e-38 -2.21284e-06)
(-1.22837e-22 -1.22837e-22 -2.21283e-06)
(-0 -0 -2.21277e-06)
(6.14157e-23 6.14157e-23 -2.21273e-06)
(6.81848e-39 6.14154e-23 -2.21272e-06)
(-1.22834e-22 -6.14169e-23 -2.21278e-06)
(6.14173e-23 -1.09031e-35 -2.21279e-06)
(6.14168e-23 -6.14168e-23 -2.21277e-06)
(-6.14249e-23 -6.14249e-23 -2.21306e-06)
(-6.14404e-23 6.14404e-23 -2.21362e-06)
(7.3936e-57 6.15059e-23 -2.21598e-06)
(1.23582e-22 6.17908e-23 -2.22625e-06)
(6.30368e-23 -0 -2.27114e-06)
(-1.38869e-22 -6.94343e-23 -2.50163e-06)
(-9.16265e-23 -4.58132e-23 -1.6506e-06)
)
;

boundaryField
{
    top
    {
        type            calculated;
        value           uniform (-1.06187e-22 -5.30934e-23 -2.01233e-06);
    }
    left
    {
        type            empty;
    }
    right
    {
        type            empty;
    }
    front
    {
        type            empty;
    }
    back
    {
        type            empty;
    }
    bottom
    {
        type            calculated;
        value           uniform (6.15468e-23 6.15468e-23 -2.21746e-06);
    }
}


// ************************************************************************* //
