/*--------------------------------*- C++ -*----------------------------------*\
  =========                 |
  \\      /  F ield         | OpenFOAM: The Open Source CFD Toolbox
   \\    /   O peration     | Website:  https://openfoam.org
    \\  /    A nd           | Version:  7
     \\/     M anipulation  |
\*---------------------------------------------------------------------------*/
FoamFile
{
    version     2.0;
    format      ascii;
    class       volScalarField;
    location    "1728000.000";
    object      XAR;
}
// * * * * * * * * * * * * * * * * * * * * * * * * * * * * * * * * * * * * * //

dimensions      [1 -3 0 0 0 0 0];

internalField   nonuniform List<scalar> 
200
(
5.28848e-07
5.2934e-07
5.30123e-07
5.3105e-07
5.32046e-07
5.33085e-07
5.34163e-07
5.3528e-07
5.36437e-07
5.37637e-07
5.38881e-07
5.4017e-07
5.41506e-07
5.42892e-07
5.44329e-07
5.45819e-07
5.47363e-07
5.48965e-07
5.50627e-07
5.5235e-07
5.54137e-07
5.55991e-07
5.57914e-07
5.5991e-07
5.61979e-07
5.64127e-07
5.66355e-07
5.68667e-07
5.71066e-07
5.73555e-07
5.76139e-07
5.78821e-07
5.81604e-07
5.84492e-07
5.87491e-07
5.90603e-07
5.93834e-07
5.97189e-07
6.00671e-07
6.04287e-07
6.08041e-07
6.11938e-07
6.15986e-07
6.20189e-07
6.24553e-07
6.29085e-07
6.33792e-07
6.3868e-07
6.43757e-07
6.4903e-07
6.54507e-07
6.60195e-07
6.66104e-07
6.72241e-07
6.78616e-07
6.85238e-07
6.92117e-07
6.99263e-07
7.06686e-07
7.14398e-07
7.22409e-07
7.30732e-07
7.39377e-07
7.4836e-07
7.57691e-07
7.67385e-07
7.77456e-07
7.8792e-07
7.9879e-07
8.10083e-07
8.21816e-07
8.34005e-07
8.46668e-07
8.59825e-07
8.73493e-07
8.87693e-07
9.02446e-07
9.17773e-07
9.33696e-07
9.50239e-07
9.67425e-07
9.85281e-07
1.00383e-06
1.0231e-06
1.04313e-06
1.06393e-06
1.08554e-06
1.108e-06
1.13133e-06
1.15557e-06
1.18075e-06
1.20692e-06
1.23411e-06
1.26236e-06
1.29172e-06
1.32222e-06
1.35392e-06
1.38687e-06
1.42111e-06
1.45669e-06
1.49367e-06
1.53212e-06
1.57208e-06
1.61362e-06
1.65681e-06
1.70171e-06
1.7484e-06
1.79695e-06
1.84745e-06
1.89997e-06
1.9546e-06
2.01143e-06
2.07056e-06
2.13208e-06
2.19611e-06
2.26276e-06
2.33214e-06
2.40437e-06
2.47959e-06
2.55793e-06
2.63954e-06
2.72456e-06
2.81316e-06
2.90551e-06
3.00178e-06
3.10218e-06
3.20689e-06
3.31613e-06
3.43013e-06
3.54912e-06
3.67337e-06
3.80313e-06
3.93871e-06
4.0804e-06
4.22853e-06
4.38345e-06
4.54554e-06
4.71519e-06
4.89284e-06
5.07893e-06
5.27397e-06
5.47848e-06
5.69303e-06
5.91825e-06
6.15478e-06
6.40336e-06
6.66477e-06
6.93984e-06
7.2295e-06
7.53476e-06
7.8567e-06
8.19654e-06
8.55557e-06
8.93526e-06
9.33717e-06
9.76308e-06
1.02149e-05
1.06949e-05
1.12053e-05
1.17488e-05
1.23285e-05
1.29478e-05
1.36102e-05
1.43203e-05
1.50827e-05
1.59029e-05
1.67872e-05
1.77429e-05
1.87781e-05
1.99025e-05
2.1127e-05
2.24649e-05
2.39312e-05
2.55441e-05
2.7325e-05
2.92998e-05
3.14996e-05
3.39623e-05
3.67347e-05
3.98751e-05
4.34567e-05
4.75727e-05
5.23441e-05
5.79298e-05
6.45428e-05
7.24747e-05
8.21353e-05
9.41175e-05
0.000109311
0.000129114
0.000155861
0.000193822
0.000252029
0.000354331
0.00058211
0.00127099
0.00390869
0.0149287
0.0594389
0.214402
)
;

boundaryField
{
    top
    {
        type            zeroGradient;
    }
    left
    {
        type            empty;
    }
    right
    {
        type            empty;
    }
    front
    {
        type            empty;
    }
    back
    {
        type            empty;
    }
    bottom
    {
        type            zeroGradient;
    }
}


// ************************************************************************* //
