/*--------------------------------*- C++ -*----------------------------------*\
  =========                 |
  \\      /  F ield         | OpenFOAM: The Open Source CFD Toolbox
   \\    /   O peration     | Website:  https://openfoam.org
    \\  /    A nd           | Version:  7
     \\/     M anipulation  |
\*---------------------------------------------------------------------------*/
FoamFile
{
    version     2.0;
    format      ascii;
    class       volScalarField;
    location    "1728000.000";
    object      XDN;
}
// * * * * * * * * * * * * * * * * * * * * * * * * * * * * * * * * * * * * * //

dimensions      [1 -3 0 0 0 0 0];

internalField   nonuniform List<scalar> 
200
(
0.000122642
0.000122806
0.00012298
0.000123155
0.00012333
0.000123506
0.000123684
0.000123863
0.000124044
0.000124226
0.00012441
0.000124595
0.000124782
0.00012497
0.00012516
0.000125351
0.000125545
0.000125739
0.000125936
0.000126134
0.000126334
0.000126535
0.000126739
0.000126944
0.00012715
0.000127359
0.000127569
0.000127782
0.000127996
0.000128212
0.00012843
0.00012865
0.000128872
0.000129096
0.000129321
0.000129549
0.000129779
0.000130011
0.000130245
0.000130481
0.00013072
0.000130961
0.000131203
0.000131449
0.000131696
0.000131946
0.000132198
0.000132452
0.000132709
0.000132968
0.00013323
0.000133495
0.000133761
0.000134031
0.000134303
0.000134578
0.000134855
0.000135136
0.000135419
0.000135705
0.000135993
0.000136285
0.00013658
0.000136877
0.000137178
0.000137482
0.000137788
0.000138099
0.000138412
0.000138729
0.000139049
0.000139372
0.000139699
0.000140029
0.000140363
0.0001407
0.000141041
0.000141386
0.000141735
0.000142087
0.000142443
0.000142804
0.000143168
0.000143536
0.000143908
0.000144285
0.000144666
0.000145051
0.000145441
0.000145835
0.000146233
0.000146636
0.000147044
0.000147456
0.000147873
0.000148296
0.000148722
0.000149154
0.000149591
0.000150033
0.00015048
0.000150933
0.000151391
0.000151854
0.000152322
0.000152796
0.000153276
0.000153761
0.000154252
0.000154748
0.00015525
0.000155758
0.000156272
0.000156792
0.000157317
0.000157849
0.000158386
0.000158929
0.000159478
0.000160033
0.000160594
0.000161161
0.000161734
0.000162312
0.000162896
0.000163486
0.000164081
0.000164682
0.000165288
0.000165899
0.000166514
0.000167135
0.00016776
0.000168389
0.000169022
0.000169658
0.000170297
0.000170939
0.000171583
0.000172229
0.000172875
0.000173522
0.000174169
0.000174814
0.000175457
0.000176098
0.000176734
0.000177366
0.000177991
0.000178609
0.000179218
0.000179817
0.000180404
0.000180978
0.000181537
0.000182079
0.000182602
0.000183105
0.000183585
0.00018404
0.000184468
0.000184866
0.000185233
0.000185565
0.000185861
0.000186119
0.000186335
0.000186509
0.000186638
0.00018672
0.000186753
0.000186737
0.000186671
0.000186553
0.000186383
0.000186162
0.000185891
0.000185571
0.000185204
0.000184794
0.000184343
0.000183856
0.00018334
0.000182801
0.000182247
0.000181686
0.000181129
0.000180589
0.00018008
0.000179617
0.000179221
0.000178918
0.00017875
0.000178795
0.000179223
0.000180434
0.000183385
0.000189905
0.00020118
0.000199943
)
;

boundaryField
{
    top
    {
        type            zeroGradient;
    }
    left
    {
        type            empty;
    }
    right
    {
        type            empty;
    }
    front
    {
        type            empty;
    }
    back
    {
        type            empty;
    }
    bottom
    {
        type            zeroGradient;
    }
}


// ************************************************************************* //
