/*--------------------------------*- C++ -*----------------------------------*\
  =========                 |
  \\      /  F ield         | OpenFOAM: The Open Source CFD Toolbox
   \\    /   O peration     | Website:  https://openfoam.org
    \\  /    A nd           | Version:  7
     \\/     M anipulation  |
\*---------------------------------------------------------------------------*/
FoamFile
{
    version     2.0;
    format      ascii;
    class       volScalarField;
    location    "1728000.000";
    object      XI;
}
// * * * * * * * * * * * * * * * * * * * * * * * * * * * * * * * * * * * * * //

dimensions      [1 -3 0 0 0 0 0];

internalField   nonuniform List<scalar> 
200
(
6.90532e-05
6.90985e-05
6.91422e-05
6.91872e-05
6.92329e-05
6.92806e-05
6.93294e-05
6.93802e-05
6.94322e-05
6.94863e-05
6.95419e-05
6.95997e-05
6.96591e-05
6.97208e-05
6.97842e-05
6.98501e-05
6.9918e-05
6.99884e-05
7.0061e-05
7.01364e-05
7.0214e-05
7.02947e-05
7.03778e-05
7.04641e-05
7.05532e-05
7.06456e-05
7.07411e-05
7.08401e-05
7.09424e-05
7.10485e-05
7.11582e-05
7.1272e-05
7.13896e-05
7.15117e-05
7.16379e-05
7.17688e-05
7.19042e-05
7.20447e-05
7.21901e-05
7.23409e-05
7.2497e-05
7.26588e-05
7.28264e-05
7.30002e-05
7.31802e-05
7.33668e-05
7.35602e-05
7.37606e-05
7.39682e-05
7.41835e-05
7.44066e-05
7.46379e-05
7.48774e-05
7.51259e-05
7.53832e-05
7.565e-05
7.59265e-05
7.62131e-05
7.651e-05
7.68178e-05
7.71367e-05
7.74672e-05
7.78097e-05
7.81645e-05
7.85322e-05
7.89132e-05
7.93079e-05
7.97168e-05
8.01404e-05
8.05792e-05
8.10337e-05
8.15045e-05
8.19921e-05
8.2497e-05
8.30199e-05
8.35614e-05
8.4122e-05
8.47025e-05
8.53034e-05
8.59255e-05
8.65694e-05
8.72359e-05
8.79257e-05
8.86396e-05
8.93782e-05
9.01426e-05
9.09335e-05
9.17517e-05
9.25982e-05
9.34739e-05
9.43796e-05
9.53165e-05
9.62854e-05
9.72875e-05
9.83238e-05
9.93955e-05
0.000100504
0.000101649
0.000102834
0.000104059
0.000105325
0.000106635
0.000107988
0.000109388
0.000110834
0.00011233
0.000113876
0.000115474
0.000117126
0.000118834
0.0001206
0.000122426
0.000124313
0.000126265
0.000128283
0.000130369
0.000132527
0.000134758
0.000137066
0.000139453
0.000141922
0.000144477
0.00014712
0.000149855
0.000152685
0.000155615
0.000158647
0.000161787
0.000165039
0.000168407
0.000171896
0.000175511
0.000179257
0.000183141
0.000187168
0.000191344
0.000195677
0.000200173
0.000204841
0.000209688
0.000214724
0.000219956
0.000225396
0.000231054
0.000236941
0.00024307
0.000249453
0.000256105
0.000263042
0.000270279
0.000277835
0.000285728
0.000293981
0.000302617
0.000311659
0.000321137
0.000331079
0.00034152
0.000352495
0.000364045
0.000376214
0.000389052
0.000402613
0.000416959
0.000432157
0.000448285
0.000465429
0.000483685
0.000503165
0.000523992
0.00054631
0.000570282
0.000596096
0.00062397
0.000654156
0.000686952
0.000722704
0.000761825
0.000804809
0.000852248
0.000904862
0.000963537
0.00102937
0.00110374
0.00118841
0.00128565
0.00139849
0.00153098
0.00168875
0.00187981
0.00211603
0.00241581
0.00280957
0.00335247
0.00416056
0.00553801
0.00850736
0.0171521
0.048272
0.158114
)
;

boundaryField
{
    top
    {
        type            zeroGradient;
    }
    left
    {
        type            empty;
    }
    right
    {
        type            empty;
    }
    front
    {
        type            empty;
    }
    back
    {
        type            empty;
    }
    bottom
    {
        type            zeroGradient;
    }
}


// ************************************************************************* //
