/*--------------------------------*- C++ -*----------------------------------*\
  =========                 |
  \\      /  F ield         | OpenFOAM: The Open Source CFD Toolbox
   \\    /   O peration     | Website:  https://openfoam.org
    \\  /    A nd           | Version:  7
     \\/     M anipulation  |
\*---------------------------------------------------------------------------*/
FoamFile
{
    version     2.0;
    format      ascii;
    class       volScalarField;
    location    "1728000.000";
    object      XN;
}
// * * * * * * * * * * * * * * * * * * * * * * * * * * * * * * * * * * * * * //

dimensions      [1 -3 0 0 0 0 0];

internalField   nonuniform List<scalar> 
200
(
1.65862e-05
1.65903e-05
1.65962e-05
1.6603e-05
1.661e-05
1.66173e-05
1.66248e-05
1.66324e-05
1.66403e-05
1.66484e-05
1.66567e-05
1.66652e-05
1.66739e-05
1.66829e-05
1.66921e-05
1.67015e-05
1.67112e-05
1.67212e-05
1.67315e-05
1.6742e-05
1.67528e-05
1.6764e-05
1.67754e-05
1.67872e-05
1.67992e-05
1.68117e-05
1.68244e-05
1.68376e-05
1.68511e-05
1.68649e-05
1.68792e-05
1.68939e-05
1.6909e-05
1.69246e-05
1.69406e-05
1.6957e-05
1.69739e-05
1.69914e-05
1.70093e-05
1.70278e-05
1.70468e-05
1.70664e-05
1.70865e-05
1.71072e-05
1.71286e-05
1.71506e-05
1.71733e-05
1.71966e-05
1.72206e-05
1.72454e-05
1.72709e-05
1.72972e-05
1.73242e-05
1.73521e-05
1.73809e-05
1.74105e-05
1.74411e-05
1.74725e-05
1.7505e-05
1.75384e-05
1.75729e-05
1.76084e-05
1.7645e-05
1.76828e-05
1.77217e-05
1.77618e-05
1.78032e-05
1.78459e-05
1.78899e-05
1.79353e-05
1.79821e-05
1.80304e-05
1.80802e-05
1.81315e-05
1.81845e-05
1.82391e-05
1.82954e-05
1.83535e-05
1.84134e-05
1.84752e-05
1.8539e-05
1.86048e-05
1.86726e-05
1.87426e-05
1.88148e-05
1.88893e-05
1.89661e-05
1.90454e-05
1.91271e-05
1.92114e-05
1.92985e-05
1.93882e-05
1.94808e-05
1.95763e-05
1.96749e-05
1.97766e-05
1.98814e-05
1.99897e-05
2.01013e-05
2.02165e-05
2.03354e-05
2.0458e-05
2.05846e-05
2.07152e-05
2.085e-05
2.0989e-05
2.11326e-05
2.12807e-05
2.14336e-05
2.15915e-05
2.17544e-05
2.19226e-05
2.20963e-05
2.22756e-05
2.24609e-05
2.26522e-05
2.28497e-05
2.30539e-05
2.32648e-05
2.34828e-05
2.37081e-05
2.39409e-05
2.41817e-05
2.44308e-05
2.46883e-05
2.49548e-05
2.52306e-05
2.55161e-05
2.58117e-05
2.61178e-05
2.6435e-05
2.67636e-05
2.71044e-05
2.74578e-05
2.78244e-05
2.8205e-05
2.86001e-05
2.90105e-05
2.94371e-05
2.98806e-05
3.03421e-05
3.08224e-05
3.13226e-05
3.18439e-05
3.23875e-05
3.29547e-05
3.3547e-05
3.41659e-05
3.48132e-05
3.54906e-05
3.62003e-05
3.69443e-05
3.77251e-05
3.85453e-05
3.94079e-05
4.03159e-05
4.1273e-05
4.22829e-05
4.335e-05
4.4479e-05
4.56752e-05
4.69446e-05
4.82937e-05
4.97301e-05
5.12621e-05
5.28991e-05
5.46519e-05
5.65327e-05
5.85555e-05
6.07363e-05
6.30936e-05
6.56489e-05
6.84271e-05
7.14574e-05
7.47743e-05
7.84188e-05
8.24398e-05
8.68962e-05
9.18597e-05
9.74182e-05
0.000103681
0.000110784
0.000118901
0.000128257
0.000139145
0.000151956
0.000167226
0.000185699
0.000208451
0.000237078
0.000274052
0.000323391
0.000391996
0.000492468
0.000649132
0.000910102
0.00136517
0.00213841
0.00320988
0.0041708
)
;

boundaryField
{
    top
    {
        type            zeroGradient;
    }
    left
    {
        type            empty;
    }
    right
    {
        type            empty;
    }
    front
    {
        type            empty;
    }
    back
    {
        type            empty;
    }
    bottom
    {
        type            zeroGradient;
    }
}


// ************************************************************************* //
