/*--------------------------------*- C++ -*----------------------------------*\
  =========                 |
  \\      /  F ield         | OpenFOAM: The Open Source CFD Toolbox
   \\    /   O peration     | Website:  https://openfoam.org
    \\  /    A nd           | Version:  7
     \\/     M anipulation  |
\*---------------------------------------------------------------------------*/
FoamFile
{
    version     2.0;
    format      ascii;
    class       volVectorField;
    location    "0.000";
    object      U;
}
// * * * * * * * * * * * * * * * * * * * * * * * * * * * * * * * * * * * * * //

dimensions      [0 1 -1 0 0 0 0];

internalField   nonuniform List<vector> 
120
(
(-0 -0 -1.39658e-09)
(-0 -0 -1.39658e-09)
(-0 -1.55051e-24 -1.39658e-09)
(-0 -1.55051e-24 -1.39658e-09)
(-0 -0 -1.39658e-09)
(-0 -0 -1.39658e-09)
(-0 -0 -1.39658e-09)
(-0 -0 -1.39658e-09)
(-0 -0 -1.39658e-09)
(-0 -0 -1.39658e-09)
(-0 -0 -1.39658e-09)
(-0 -0 -1.39658e-09)
(-0 -0 -1.39658e-09)
(-0 -0 -1.39658e-09)
(-0 -0 -1.39658e-09)
(-0 -0 -1.39658e-09)
(-0 -0 -1.39658e-09)
(-0 -0 -1.39658e-09)
(-0 -0 -1.39658e-09)
(-0 -0 -1.39658e-09)
(-0 -0 -1.39658e-09)
(-0 -0 -1.39658e-09)
(-0 -0 -1.39658e-09)
(-0 -0 -1.39658e-09)
(-0 -0 -1.39658e-09)
(-0 -0 -1.39658e-09)
(-0 -0 -1.39658e-09)
(-0 -0 -1.39658e-09)
(-0 -0 -1.39658e-09)
(-0 -0 -1.39658e-09)
(-0 -0 -1.39658e-09)
(-0 -0 -1.39658e-09)
(-0 -0 -1.39658e-09)
(-0 -0 -1.39658e-09)
(-0 -0 -1.39658e-09)
(-0 -0 -1.39658e-09)
(-0 -0 -1.39658e-09)
(-0 -0 -1.39658e-09)
(-0 -0 -1.39658e-09)
(-0 -0 -1.39658e-09)
(-0 -0 -1.39658e-09)
(-0 -0 -1.39658e-09)
(-0 -0 -1.39658e-09)
(-0 -0 -1.39658e-09)
(-0 -0 -1.39658e-09)
(-0 -0 -1.39658e-09)
(-0 -0 -1.39658e-09)
(-0 -0 -1.39658e-09)
(-0 -0 -1.39658e-09)
(-0 -0 -1.39658e-09)
(-0 -0 -1.39658e-09)
(-0 -0 -1.39658e-09)
(-0 -0 -1.39658e-09)
(-0 -0 -1.39658e-09)
(-0 -0 -1.39658e-09)
(-0 -0 -1.39658e-09)
(-0 -0 -1.39658e-09)
(-0 -0 -1.39658e-09)
(-0 -0 -1.39658e-09)
(-0 -0 -1.39658e-09)
(-0 -0 -1.39658e-09)
(-0 -0 -1.39658e-09)
(-0 -0 -1.39658e-09)
(-0 -0 -1.39658e-09)
(-0 -0 -1.39658e-09)
(-0 -0 -1.39658e-09)
(-0 -0 -1.39658e-09)
(-0 -0 -1.39658e-09)
(-0 -0 -1.39658e-09)
(-0 -0 -1.39658e-09)
(-0 -0 -1.39658e-09)
(-0 -0 -1.39658e-09)
(-0 -0 -1.39658e-09)
(-0 -0 -1.39658e-09)
(-0 -0 -1.39658e-09)
(-0 -0 -1.39658e-09)
(-0 -0 -1.39658e-09)
(-0 -0 -1.39658e-09)
(-0 -0 -1.39658e-09)
(-0 -0 -1.39658e-09)
(-0 -0 -1.39658e-09)
(-0 -0 -1.39658e-09)
(-0 -0 -1.39658e-09)
(-0 -0 -1.39658e-09)
(-0 -0 -1.39658e-09)
(-0 -0 -1.39658e-09)
(-0 -0 -1.39658e-09)
(-0 -0 -1.39658e-09)
(-0 -0 -1.39658e-09)
(-0 -0 -1.39658e-09)
(-0 -0 -1.39658e-09)
(-0 -0 -1.39658e-09)
(-0 -0 -1.39658e-09)
(-0 -0 -1.39658e-09)
(-0 -0 -1.39658e-09)
(-0 -0 -1.39658e-09)
(-0 -0 -1.39658e-09)
(-0 -0 -1.39658e-09)
(-0 -0 -1.39658e-09)
(-0 -0 -1.39658e-09)
(-0 -0 -1.39658e-09)
(-0 -0 -1.39658e-09)
(-0 -0 -1.39658e-09)
(-0 -0 -1.39658e-09)
(-0 -0 -1.39658e-09)
(-0 -0 -1.39658e-09)
(-0 -0 -1.39658e-09)
(-0 -0 -1.39658e-09)
(-0 -0 -1.39658e-09)
(-0 -0 -1.39658e-09)
(-0 -0 -1.39658e-09)
(-0 -0 -1.39658e-09)
(-0 -0 -1.39658e-09)
(-0 -0 -1.39658e-09)
(-0 -0 -1.39658e-09)
(-0 -0 -1.39658e-09)
(-0 -0 -1.39658e-09)
(-0 -0 -1.39658e-09)
(-0 -0 -1.39658e-09)
(-0 -0 -2.04994e-08)
)
;

boundaryField
{
    top
    {
        type            calculated;
        value           uniform (-0 -0 -0.000872103);
    }
    left
    {
        type            empty;
    }
    right
    {
        type            empty;
    }
    front
    {
        type            empty;
    }
    back
    {
        type            empty;
    }
    bottom
    {
        type            calculated;
        value           uniform (-0 -0 -1.39658e-09);
    }
}


// ************************************************************************* //
