/*--------------------------------*- C++ -*----------------------------------*\
  =========                 |
  \\      /  F ield         | OpenFOAM: The Open Source CFD Toolbox
   \\    /   O peration     | Website:  https://openfoam.org
    \\  /    A nd           | Version:  7
     \\/     M anipulation  |
\*---------------------------------------------------------------------------*/
FoamFile
{
    version     2.0;
    format      ascii;
    class       volScalarField;
    location    "0.000";
    object      DOC;
}
// * * * * * * * * * * * * * * * * * * * * * * * * * * * * * * * * * * * * * //

dimensions      [ 1 -3 0 0 0 0 0 ];

/*
    Taylor & Jaffé (1993): Initial condition
    ♦ Pumped 6.67 mg[methanol]/L which is equal to 10.0 mg[BOD]/L
*/
internalField   uniform 0.0108;

boundaryField
{
    front
    {
        type            empty;
    }
    back
    {
        type            empty;
    }
    right
    {
        type            empty;
    }
    left
    {
        type            empty;
    }
    bottom
    {
        /*
        Taylor & Jaffé (1993): Table 1 
           ♦ Influent substrate S0 = 7.20 mg[methanol]/L 
             which is equal to 10.8 mg[BOD]/L
        */
        type            uniformInletOutlet;
        uniformInletValue constant 0.0108;
        phi             phi;
    }
    top
    {
        type            zeroGradient;
    }
}


// ************************************************************************* //
