/*--------------------------------*- C++ -*----------------------------------*\
  =========                 |
  \\      /  F ield         | OpenFOAM: The Open Source CFD Toolbox
   \\    /   O peration     | Website:  https://openfoam.org
    \\  /    A nd           | Version:  7
     \\/     M anipulation  |
\*---------------------------------------------------------------------------*/
FoamFile
{
    version     2.0;
    format      ascii;
    class       volScalarField;
    location    "0.000";
    object      h;
}
// * * * * * * * * * * * * * * * * * * * * * * * * * * * * * * * * * * * * * //

dimensions      [ 0 1 0 0 0 0 0 ];

internalField   uniform 0.001;

boundaryField
{
    front
    {
        type            empty;
    }
    back
    {
        type            empty;
    }
    right
    {
        type            zeroGradient;
    }
    left
    {
        type            zeroGradient;
    }
    top
    {
        type            fixedValue;
        value           uniform 0.001;
    }
    bottom
    {
        type            fixedGradient;
        gradient        uniform 0.03778; 
        /*
         q = - K • grad(h) 
         1.11E-7 m³/s / (0.01 m × 0.30 m) = - 9.8E-4 m/s • grad(h);
         grad(h) = 0.0378
         */
    }
}


// ************************************************************************* //
