/*--------------------------------*- C++ -*----------------------------------*\
  =========                 |
  \\      /  F ield         | OpenFOAM: The Open Source CFD Toolbox
   \\    /   O peration     | Website:  https://openfoam.org
    \\  /    A nd           | Version:  7
     \\/     M anipulation  |
\*---------------------------------------------------------------------------*/
FoamFile
{
    version         2;
    format          ascii;
    class           volScalarField;
    object          h;
}

dimensions      [ 0 1 0 0 0 0 0 ];

internalField   uniform -1e-6;

boundaryField
{
    front
    {
        type            empty;
    }
    back
    {
        type            empty;
    }
    right
    {
        type            empty;
    }
    left
    {
        type            empty;
    }
    top
    {
        // type        fixedValue;
        // value       uniform -1;
        // phi             phi;
        
        type            unsatTime;
        value           $internalField;
        uniformValue	table
        (
            (0 0)
            (10000 1)
        );
        // {
        //     type                ;
        //     nHeaderLine      1;              // number of header lines
        //     refColumn        0;              // time column index
        //     componentColumns (1);            // data column index
        //     separator        ",";            // optional (defaults to ",")
        //     mergeSeparators  no;             // merge multiple separators
        //     file             "../experimental-data/headFixed_SW150/headFixed_1.csv";
        // } 
    }
    bottom
    {
        type            fixedGradient;
        gradient        uniform 0;
    }
}


// ************************************************************************* //
