/*--------------------------------*- C++ -*----------------------------------*\
  =========                 |
  \\      /  F ield         | OpenFOAM: The Open Source CFD Toolbox
   \\    /   O peration     | Website:  https://openfoam.org
    \\  /    A nd           | Version:  7
     \\/     M anipulation  |
\*---------------------------------------------------------------------------*/
FoamFile
{
    version         2;
    format          ascii;
    class           volScalarField;
    object          h;
}

dimensions      [ 0 1 0 0 0 0 0 ];

internalField   uniform  0;

boundaryField
{
    front
    {
        type            empty;
    }
    back
    {
        type            empty;
    }
    right
    {
        type            empty;
    }
    left
    {
        type            empty;
    }
    top
    {
        // type        fixedValue;
        // value       uniform -1;
        // phi             phi;

        type            unsatTime;
        //value           $internalField;
        initialTime     0;
        finalTime       300;
        initialHead     -0.69;
        finalHead       0.69;
    }
    bottom
    {
        type            fixedGradient;
        gradient        uniform 0;
    }
}


// ************************************************************************* //
