/*--------------------------------*- C++ -*----------------------------------*\
  =========                 |
  \\      /  F ield         | OpenFOAM: The Open Source CFD Toolbox
   \\    /   O peration     | Website:  https://openfoam.org
    \\  /    A nd           | Version:  7
     \\/     M anipulation  |
\*---------------------------------------------------------------------------*/
FoamFile
{
    version     2.0;
    format      ascii;
    class       volVectorField;
    location    "0.000";
    object      U;
}
// * * * * * * * * * * * * * * * * * * * * * * * * * * * * * * * * * * * * * //

dimensions      [0 1 -1 0 0 0 0];

internalField   nonuniform List<vector> 
600
(
(5.53321e-22 5.53321e-22 -4.90714e-05)
(5.52681e-22 1.10664e-21 -4.90714e-05)
(-0 -1.28206e-24 -4.90714e-05)
(5.55245e-22 -5.53961e-22 -4.90714e-05)
(-5.57173e-22 -5.55888e-22 -4.90714e-05)
(-5.53958e-22 1.28652e-24 -4.90714e-05)
(5.55888e-22 5.55888e-22 -4.90714e-05)
(-0 -0 -4.90714e-05)
(-0 -5.58467e-22 -4.90714e-05)
(-0 1.29248e-24 -4.90714e-05)
(-5.59761e-22 -5.61055e-22 -4.90714e-05)
(-5.59113e-22 2.59096e-24 -4.90714e-05)
(-0 5.58464e-22 -4.90714e-05)
(-0 -5.60409e-22 -4.90714e-05)
(1.12472e-21 1.12472e-21 -4.90714e-05)
(-5.65612e-22 -2.60298e-24 -4.90714e-05)
(-1.12341e-21 -1.12472e-21 -4.90714e-05)
(1.69164e-21 1.69294e-21 -4.90714e-05)
(5.62355e-22 5.61049e-22 -4.90714e-05)
(-5.64313e-22 -1.12863e-21 -4.90714e-05)
(-5.66276e-22 -5.66276e-22 -4.90714e-05)
(-5.65621e-22 -5.65621e-22 -4.90714e-05)
(5.67588e-22 5.67588e-22 -4.90714e-05)
(-1.31359e-24 5.66931e-22 -4.90714e-05)
(-1.13649e-21 -0 -4.90714e-05)
(1.14044e-21 5.69562e-22 -4.90714e-05)
(1.13649e-21 5.68903e-22 -4.90714e-05)
(-5.69562e-22 -5.70881e-22 -4.90714e-05)
(-0 -5.70221e-22 -4.90714e-05)
(-5.72204e-22 -5.72204e-22 -4.90714e-05)
(1.32428e-24 1.32428e-24 -4.90714e-05)
(5.72204e-22 5.72204e-22 -4.90714e-05)
(-5.74194e-22 -5.74194e-22 -4.90714e-05)
(1.32888e-24 1.32888e-24 -4.90714e-05)
(1.14972e-21 1.14972e-21 -4.90714e-05)
(-5.77523e-22 -5.77523e-22 -4.90714e-05)
(-1.15105e-21 -1.15105e-21 -4.90714e-05)
(1.15505e-21 1.15505e-21 -4.90714e-05)
(1.15372e-21 1.15372e-21 -4.90714e-05)
(-1.15773e-21 -1.15773e-21 -4.90714e-05)
(-1.15639e-21 -1.15639e-21 -4.90714e-05)
(-0 5.80205e-22 -4.90714e-05)
(5.80877e-22 1.16041e-21 -4.90714e-05)
(-5.82894e-22 -1.16444e-21 -4.90714e-05)
(2.69182e-24 -5.78185e-22 -4.90714e-05)
(5.80202e-22 1.1631e-21 -4.90714e-05)
(-1.16579e-21 -1.16714e-21 -4.90714e-05)
(1.35059e-24 -5.81546e-22 -4.90714e-05)
(1.1685e-21 1.1685e-21 -4.90714e-05)
(-1.35371e-24 -1.35371e-24 -4.90714e-05)
(5.87635e-22 1.17391e-21 -4.90714e-05)
(-5.89672e-22 -5.91029e-22 -4.90714e-05)
(-5.83563e-22 -1.16984e-21 -4.90714e-05)
(5.85598e-22 1.17392e-21 -4.90714e-05)
(5.90361e-22 -0 -4.90714e-05)
(-2.7263e-24 -5.89681e-22 -4.90714e-05)
(-1.178e-21 -5.88999e-22 -4.90714e-05)
(5.91048e-22 5.91048e-22 -4.90714e-05)
(5.90364e-22 5.90364e-22 -4.90714e-05)
(-0 -5.92417e-22 -4.90714e-05)
(-5.93103e-22 -5.91732e-22 -4.90714e-05)
(-5.92417e-22 -5.9379e-22 -4.90714e-05)
(5.94477e-22 1.37423e-24 -4.90714e-05)
(5.9379e-22 1.18896e-21 -4.90714e-05)
(-0 5.94477e-22 -4.90714e-05)
(-0 -5.96545e-22 -4.90714e-05)
(-0 1.38062e-24 -4.90714e-05)
(-5.97927e-22 -1.38221e-24 -4.90714e-05)
(-5.97235e-22 -5.97235e-22 -4.90714e-05)
(5.99312e-22 -0 -4.90714e-05)
(-1.38702e-24 -0 -4.90714e-05)
(-1.20001e-21 -6.00701e-22 -4.90714e-05)
(6.02787e-22 1.39023e-24 -4.90714e-05)
(1.2014e-21 1.20279e-21 -4.90714e-05)
(-0 1.20419e-21 -4.90714e-05)
(-0 -1.39507e-24 -4.90714e-05)
(-6.04187e-22 -1.20698e-21 -4.90714e-05)
(1.39831e-24 1.39831e-24 -4.90714e-05)
(-1.39988e-24 6.04187e-22 -4.90714e-05)
(1.40155e-24 -0 -4.90714e-05)
(6.05586e-22 -0 -4.90714e-05)
(-0 -0 -4.90714e-05)
(-0 -0 -4.90714e-05)
(-0 -0 -4.90714e-05)
(6.09806e-22 -0 -4.90714e-05)
(-6.11923e-22 -1.22102e-21 -4.90714e-05)
(-1.21961e-21 2.82581e-24 -4.90714e-05)
(-0 1.22102e-21 -4.90714e-05)
(-0 -6.12635e-22 -4.90714e-05)
(6.13344e-22 1.4178e-24 -4.90714e-05)
(6.12635e-22 -1.41947e-24 -4.90714e-05)
(-0 1.42118e-24 -4.90714e-05)
(-6.15477e-22 -1.4228e-24 -4.90714e-05)
(1.42441e-24 -6.14765e-22 -4.90714e-05)
(-1.42608e-24 -0 -4.90714e-05)
(1.42769e-24 -6.17617e-22 -4.90714e-05)
(-1.42941e-24 6.19762e-22 -4.90714e-05)
(1.43107e-24 6.16186e-22 -4.90714e-05)
(-1.43264e-24 -6.18333e-22 -4.90714e-05)
(-6.19049e-22 -0 -4.90714e-05)
(-0 6.21201e-22 -4.90714e-05)
(-0 6.20483e-22 -4.90714e-05)
(6.22641e-22 -0 -4.90714e-05)
(-1.44101e-24 -1.24672e-21 -4.90714e-05)
(-6.22641e-22 2.88536e-24 -4.90714e-05)
(-0 6.21917e-22 -4.90714e-05)
(-0 -6.24083e-22 -4.90714e-05)
(6.26254e-22 6.26254e-22 -4.90714e-05)
(-1.44939e-24 -1.44939e-24 -4.90714e-05)
(-6.26254e-22 1.45106e-24 -4.90714e-05)
(6.28431e-22 6.26979e-22 -4.90714e-05)
(-1.45439e-24 -6.29159e-22 -4.90714e-05)
(1.4561e-24 -6.28431e-22 -4.90714e-05)
(-6.32075e-22 -6.30617e-22 -4.90714e-05)
(-6.28428e-22 1.45948e-24 -4.90714e-05)
(6.30617e-22 6.30617e-22 -4.90714e-05)
(-0 6.3281e-22 -4.90714e-05)
(-0 -1.46458e-24 -4.90714e-05)
(-6.34276e-22 -6.3281e-22 -4.90714e-05)
(1.46791e-24 -6.3501e-22 -4.90714e-05)
(-1.46968e-24 -6.34276e-22 -4.90714e-05)
(1.47134e-24 6.36482e-22 -4.90714e-05)
(1.27296e-21 1.27296e-21 -4.90714e-05)
(6.36482e-22 6.36482e-22 -4.90714e-05)
(-0 -0 -4.90714e-05)
(-6.39435e-22 -6.39435e-22 -4.90714e-05)
(-6.38695e-22 -6.38695e-22 -4.90714e-05)
(-6.40916e-22 -6.40916e-22 -4.90714e-05)
(1.48331e-24 1.48331e-24 -4.90714e-05)
(6.40916e-22 1.28332e-21 -4.90714e-05)
(6.43145e-22 6.41658e-22 -4.90714e-05)
(-1.48841e-24 -6.4389e-22 -4.90714e-05)
(-1.28778e-21 -1.28778e-21 -4.90714e-05)
(-6.4389e-22 1.49195e-24 -4.90714e-05)
(1.29226e-21 1.29076e-21 -4.90714e-05)
(6.43886e-22 -1.49539e-24 -4.90714e-05)
(-1.29375e-21 -1.29375e-21 -4.90714e-05)
(-6.46877e-22 -6.46877e-22 -4.90714e-05)
(-0 6.49127e-22 -4.90714e-05)
(1.29976e-21 1.29825e-21 -4.90714e-05)
(1.29825e-21 6.49127e-22 -4.90714e-05)
(-6.51384e-22 -6.51384e-22 -4.90714e-05)
(-1.30277e-21 -1.30277e-21 -4.90714e-05)
(1.50929e-24 1.50929e-24 -4.90714e-05)
(6.52138e-22 -1.511e-24 -4.90714e-05)
(-0 1.51277e-24 -4.90714e-05)
(-0 1.30881e-21 -4.90714e-05)
(-0 6.54406e-22 -4.90714e-05)
(-0 -6.56682e-22 -4.90714e-05)
(-0 -6.55922e-22 -4.90714e-05)
(6.58203e-22 6.58203e-22 -4.90714e-05)
(6.57442e-22 6.57442e-22 -4.90714e-05)
(-6.59728e-22 -6.59728e-22 -4.90714e-05)
(-1.31946e-21 -6.58965e-22 -4.90714e-05)
(1.52861e-24 -0 -4.90714e-05)
(1.32251e-21 -6.62023e-22 -4.90714e-05)
(6.61257e-22 6.64321e-22 -4.90714e-05)
(-0 1.32405e-21 -4.90714e-05)
(-0 -0 -4.90714e-05)
(-6.65094e-22 -0 -4.90714e-05)
(-6.64325e-22 -6.65864e-22 -4.90714e-05)
(6.66635e-22 1.54108e-24 -4.90714e-05)
(-1.54279e-24 -1.54279e-24 -4.90714e-05)
(-6.66635e-22 -6.66635e-22 -4.90714e-05)
(-0 6.68953e-22 -4.90714e-05)
(6.69728e-22 6.6818e-22 -4.90714e-05)
(6.68953e-22 -0 -4.90714e-05)
(-0 -0 -4.90714e-05)
(-6.72057e-22 -6.72057e-22 -4.90714e-05)
(-6.7128e-22 1.55532e-24 -4.90714e-05)
(-6.73614e-22 -6.75171e-22 -4.90714e-05)
(1.55898e-24 -6.71276e-22 -4.90714e-05)
(-1.56075e-24 6.73614e-22 -4.90714e-05)
(6.77519e-22 6.75957e-22 -4.90714e-05)
(6.7361e-22 -1.56441e-24 -4.90714e-05)
(-6.75957e-22 -1.35348e-21 -4.90714e-05)
(6.78307e-22 1.56802e-24 -4.90714e-05)
(-1.56985e-24 6.77523e-22 -4.90714e-05)
(-6.78307e-22 -0 -4.90714e-05)
(6.80666e-22 6.80666e-22 -4.90714e-05)
(6.79879e-22 6.79879e-22 -4.90714e-05)
(-6.82243e-22 -6.82243e-22 -4.90714e-05)
(1.57901e-24 1.57901e-24 -4.90714e-05)
(1.36607e-21 6.82243e-22 -4.90714e-05)
(-6.86198e-22 -6.84616e-22 -4.90714e-05)
(-6.82239e-22 -6.83824e-22 -4.90714e-05)
(6.84616e-22 1.3724e-21 -4.90714e-05)
(-6.86997e-22 -3.17608e-24 -4.90714e-05)
(1.58993e-24 -6.84612e-22 -4.90714e-05)
(-1.59189e-24 6.86997e-22 -4.90714e-05)
(-6.87792e-22 -6.89386e-22 -4.90714e-05)
(6.90184e-22 1.59543e-24 -4.90714e-05)
(6.89386e-22 6.89386e-22 -4.90714e-05)
(-6.91783e-22 -6.91783e-22 -4.90714e-05)
(-6.90983e-22 1.60099e-24 -4.90714e-05)
(-0 -1.60294e-24 -4.90714e-05)
(-0 -6.92584e-22 -4.90714e-05)
(6.94992e-22 -0 -4.90714e-05)
(-1.6085e-24 -0 -4.90714e-05)
(1.61033e-24 6.96603e-22 -4.90714e-05)
(-1.61222e-24 -1.61222e-24 -4.90714e-05)
(-6.96603e-22 -6.96603e-22 -4.90714e-05)
(-0 6.99025e-22 -4.90714e-05)
(6.99835e-22 6.98217e-22 -4.90714e-05)
(-1.61974e-24 -1.40129e-21 -4.90714e-05)
(-6.99835e-22 -6.98213e-22 -4.90714e-05)
(-0 -1.6234e-24 -4.90714e-05)
(7.03082e-22 7.04707e-22 -4.90714e-05)
(1.40616e-21 2.10843e-21 -4.90714e-05)
(-1.62902e-24 -1.62902e-24 -4.90714e-05)
(-1.40942e-21 -1.40942e-21 -4.90714e-05)
(1.63287e-24 1.63287e-24 -4.90714e-05)
(-1.6347e-24 7.05526e-22 -4.90714e-05)
(-7.06343e-22 -0 -4.90714e-05)
(-0 -0 -4.90714e-05)
(7.0962e-22 -0 -4.90714e-05)
(7.088e-22 -7.10442e-22 -4.90714e-05)
(-7.11265e-22 1.64418e-24 -4.90714e-05)
(-7.10442e-22 -1.64614e-24 -4.90714e-05)
(7.12913e-22 1.64803e-24 -4.90714e-05)
(1.42583e-21 7.12088e-22 -4.90714e-05)
(-1.65189e-24 -0 -4.90714e-05)
(-1.42913e-21 -7.15392e-22 -4.90714e-05)
(-7.14564e-22 1.65561e-24 -4.90714e-05)
(-7.17049e-22 -7.18707e-22 -4.90714e-05)
(1.65953e-24 3.31907e-24 -4.90714e-05)
(7.17049e-22 7.15388e-22 -4.90714e-05)
(7.19543e-22 -7.1788e-22 -4.90714e-05)
(7.18711e-22 7.20376e-22 -4.90714e-05)
(-7.2121e-22 -1.66711e-24 -4.90714e-05)
(1.66914e-24 1.66914e-24 -4.90714e-05)
(7.2121e-22 7.2121e-22 -4.90714e-05)
(-7.23718e-22 -0 -4.90714e-05)
(-1.44744e-21 -7.24556e-22 -4.90714e-05)
(7.27072e-22 1.67685e-24 -4.90714e-05)
(7.22877e-22 -1.67888e-24 -4.90714e-05)
(1.68071e-24 -7.25395e-22 -4.90714e-05)
(7.26235e-22 7.27918e-22 -4.90714e-05)
(-7.28761e-22 -1.6847e-24 -4.90714e-05)
(1.68659e-24 1.68659e-24 -4.90714e-05)
(-1.68856e-24 -1.68856e-24 -4.90714e-05)
(7.32985e-22 7.32985e-22 -4.90714e-05)
(7.28757e-22 -3.38482e-24 -4.90714e-05)
(-1.46428e-21 -1.46259e-21 -4.90714e-05)
(-7.32142e-22 -0 -4.90714e-05)
(7.34688e-22 7.34688e-22 -4.90714e-05)
(7.33838e-22 1.46938e-21 -4.90714e-05)
(-7.3639e-22 -7.38092e-22 -4.90714e-05)
(-1.47278e-21 -2.20832e-21 -4.90714e-05)
(1.70622e-24 1.70622e-24 -4.90714e-05)
(1.47619e-21 7.37243e-22 -4.90714e-05)
(-1.71021e-24 7.39806e-22 -4.90714e-05)
(-7.38951e-22 -1.71211e-24 -4.90714e-05)
(-0 1.71414e-24 -4.90714e-05)
(7.42379e-22 -1.71617e-24 -4.90714e-05)
(7.4152e-22 1.71814e-24 -4.90714e-05)
(-1.4882e-21 -7.45819e-22 -4.90714e-05)
(-7.41516e-22 -7.41516e-22 -4.90714e-05)
(-1.72409e-24 7.44099e-22 -4.90714e-05)
(1.72606e-24 -0 -4.90714e-05)
(-1.72809e-24 -0 -4.90714e-05)
(1.73012e-24 -0 -4.90714e-05)
(1.49683e-21 1.49857e-21 -4.90714e-05)
(7.48417e-22 7.46683e-22 -4.90714e-05)
(-0 -1.5003e-21 -4.90714e-05)
(-7.51889e-22 -7.50151e-22 -4.90714e-05)
(-7.5102e-22 -0 -4.90714e-05)
(-0 -0 -4.90714e-05)
(7.54504e-22 7.54504e-22 -4.90714e-05)
(-7.57124e-22 -7.57124e-22 -4.90714e-05)
(-7.52756e-22 -7.52756e-22 -4.90714e-05)
(7.55377e-22 -1.75018e-24 -4.90714e-05)
(-0 1.75221e-24 -4.90714e-05)
(7.58882e-22 1.51601e-21 -4.90714e-05)
(7.58004e-22 7.58004e-22 -4.90714e-05)
(-7.6064e-22 -1.52128e-21 -4.90714e-05)
(1.76035e-24 -7.58e-22 -4.90714e-05)
(7.6064e-22 7.6064e-22 -4.90714e-05)
(-0 7.63285e-22 -4.90714e-05)
(-0 7.62403e-22 -4.90714e-05)
(-0 -0 -4.90714e-05)
(-7.6594e-22 -7.6594e-22 -4.90714e-05)
(1.77264e-24 1.77264e-24 -4.90714e-05)
(7.6594e-22 -1.77475e-24 -4.90714e-05)
(-7.68603e-22 -7.66827e-22 -4.90714e-05)
(1.77882e-24 7.69493e-22 -4.90714e-05)
(-1.78086e-24 -1.78086e-24 -4.90714e-05)
(1.78297e-24 1.78297e-24 -4.90714e-05)
(7.70384e-22 7.70384e-22 -4.90714e-05)
(-0 -0 -4.90714e-05)
(-0 -1.54792e-21 -4.90714e-05)
(-0 -7.71272e-22 -4.90714e-05)
(-7.75752e-22 7.73959e-22 -4.90714e-05)
(-7.74855e-22 -0 -4.90714e-05)
(7.77549e-22 7.77549e-22 -4.90714e-05)
(7.7665e-22 -7.80249e-22 -4.90714e-05)
(-7.79351e-22 -7.75748e-22 -4.90714e-05)
(1.8037e-24 1.5587e-21 -4.90714e-05)
(7.79351e-22 7.79351e-22 -4.90714e-05)
(-1.56412e-21 -1.56412e-21 -4.90714e-05)
(-7.79347e-22 -7.79347e-22 -4.90714e-05)
(1.56593e-21 1.56593e-21 -4.90714e-05)
(-1.81427e-24 -1.81427e-24 -4.90714e-05)
(-7.83873e-22 -7.83873e-22 -4.90714e-05)
(-7.86599e-22 -7.86599e-22 -4.90714e-05)
(7.8933e-22 7.8933e-22 -4.90714e-05)
(-3.64513e-24 -3.64513e-24 -4.90714e-05)
(-7.85685e-22 -7.85685e-22 -4.90714e-05)
(1.57867e-21 1.57867e-21 -4.90714e-05)
(-7.92992e-22 -1.8289e-24 -4.90714e-05)
(3.6622e-24 -7.90248e-22 -4.90714e-05)
(7.8933e-22 -0 -4.90714e-05)
(1.83524e-24 7.93915e-22 -4.90714e-05)
(7.92997e-22 -1.83736e-24 -4.90714e-05)
(-0 1.83947e-24 -4.90714e-05)
(-0 7.94834e-22 -4.90714e-05)
(7.97598e-22 -0 -4.90714e-05)
(-1.59889e-21 -1.59704e-21 -4.90714e-05)
(-1.59335e-21 -7.9575e-22 -4.90714e-05)
(2.39926e-21 1.59889e-21 -4.90714e-05)
(-3.7048e-24 -1.8524e-24 -4.90714e-05)
(-1.60074e-21 -8.00372e-22 -4.90714e-05)
(1.60631e-21 8.03155e-22 -4.90714e-05)
(8.00367e-22 8.02226e-22 -4.90714e-05)
(-1.60817e-21 -8.05016e-22 -4.90714e-05)
(-8.04085e-22 -8.04085e-22 -4.90714e-05)
(1.61376e-21 1.61376e-21 -4.90714e-05)
(8.04081e-22 8.04081e-22 -4.90714e-05)
(-2.42438e-21 -2.42438e-21 -4.90714e-05)
(3.74333e-24 -1.61563e-21 -4.90714e-05)
(-3.74773e-24 1.62125e-21 -4.90714e-05)
(-8.07811e-22 8.07811e-22 -4.90714e-05)
(-1.87826e-24 -1.62313e-21 -4.90714e-05)
(8.15324e-22 8.15324e-22 -4.90714e-05)
(8.1062e-22 8.1062e-22 -4.90714e-05)
(1.88477e-24 1.88477e-24 -4.90714e-05)
(8.14386e-22 8.14386e-22 -4.90714e-05)
(-8.17218e-22 -8.17218e-22 -4.90714e-05)
(-8.16273e-22 -8.16273e-22 -4.90714e-05)
(8.19111e-22 8.19111e-22 -4.90714e-05)
(8.18164e-22 8.18164e-22 -4.90714e-05)
(-0 -0 -4.90714e-05)
(-0 -0 -4.90714e-05)
(-0 8.22911e-22 -4.90714e-05)
(-8.23864e-22 -8.25769e-22 -4.90714e-05)
(1.90675e-24 -1.64582e-21 -4.90714e-05)
(8.23864e-22 8.25773e-22 -4.90714e-05)
(-8.26729e-22 -1.91114e-24 -4.90714e-05)
(-8.25773e-22 -8.25773e-22 -4.90714e-05)
(8.28645e-22 1.65729e-21 -4.90714e-05)
(8.27686e-22 8.25769e-22 -4.90714e-05)
(-8.30565e-22 -8.28645e-22 -4.90714e-05)
(-8.29604e-22 -8.31526e-22 -4.90714e-05)
(8.32489e-22 1.92451e-24 -4.90714e-05)
(-8.3538e-22 -8.3538e-22 -4.90714e-05)
(3.85762e-24 3.85762e-24 -4.90714e-05)
(1.66691e-21 1.66691e-21 -4.90714e-05)
(-0 -1.6727e-21 -4.90714e-05)
(-1.67464e-21 3.87099e-24 -4.90714e-05)
(-1.6727e-21 1.6727e-21 -4.90714e-05)
(1.67852e-21 -8.3926e-22 -4.90714e-05)
(1.67658e-21 8.42174e-22 -4.90714e-05)
(-8.41204e-22 8.37315e-22 -4.90714e-05)
(8.44125e-22 1.94685e-24 -4.90714e-05)
(-3.89827e-24 -8.45103e-22 -4.90714e-05)
(-8.40227e-22 3.90266e-24 -4.90714e-05)
(-1.95353e-24 -3.90705e-24 -4.90714e-05)
(1.95591e-24 -8.42174e-22 -4.90714e-05)
(-1.9582e-24 8.45107e-22 -4.90714e-05)
(1.96039e-24 -0 -4.90714e-05)
(8.47065e-22 1.69806e-21 -4.90714e-05)
(-0 -3.92995e-24 -4.90714e-05)
(-0 -1.69806e-21 -4.90714e-05)
(-8.51981e-22 -0 -4.90714e-05)
(1.97184e-24 -0 -4.90714e-05)
(1.70594e-21 -0 -4.90714e-05)
(-8.5692e-22 -8.54943e-22 -4.90714e-05)
(-1.70791e-21 -8.53955e-22 -4.90714e-05)
(-0 -0 -4.90714e-05)
(8.57916e-22 8.57916e-22 -4.90714e-05)
(-1.98548e-24 -1.98548e-24 -4.90714e-05)
(1.98787e-24 1.98787e-24 -4.90714e-05)
(8.5891e-22 8.5891e-22 -4.90714e-05)
(-0 -0 -4.90714e-05)
(8.62895e-22 8.62895e-22 -4.90714e-05)
(-1.99712e-24 -1.99712e-24 -4.90714e-05)
(-8.62895e-22 -8.62895e-22 -4.90714e-05)
(-8.65895e-22 -8.65895e-22 -4.90714e-05)
(-8.64894e-22 -8.64894e-22 -4.90714e-05)
(8.67902e-22 8.67902e-22 -4.90714e-05)
(8.66898e-22 8.66898e-22 -4.90714e-05)
(-8.69913e-22 -8.69913e-22 -4.90714e-05)
(-8.68907e-22 -1.73983e-21 -4.90714e-05)
(8.71928e-22 8.73944e-22 -4.90714e-05)
(8.7092e-22 8.68902e-22 -4.90714e-05)
(-8.73948e-22 -8.71928e-22 -4.90714e-05)
(-8.72938e-22 -0 -4.90714e-05)
(8.75973e-22 8.75973e-22 -4.90714e-05)
(8.7496e-22 8.7496e-22 -4.90714e-05)
(8.78003e-22 8.78003e-22 -4.90714e-05)
(-2.03215e-24 -8.81052e-22 -4.90714e-05)
(-1.75804e-21 -8.75969e-22 -4.90714e-05)
(2.03663e-24 8.7902e-22 -4.90714e-05)
(-2.03912e-24 -8.82077e-22 -4.90714e-05)
(2.04141e-24 2.04141e-24 -4.90714e-05)
(-8.86164e-22 -2.04379e-24 -4.90714e-05)
(-8.81052e-22 2.04618e-24 -4.90714e-05)
(8.8412e-22 -8.88217e-22 -4.90714e-05)
(8.87195e-22 -8.83093e-22 -4.90714e-05)
(-2.05335e-24 8.86169e-22 -4.90714e-05)
(2.05564e-24 8.89251e-22 -4.90714e-05)
(8.88222e-22 8.88222e-22 -4.90714e-05)
(-0 -0 -4.90714e-05)
(-0 -8.92343e-22 -4.90714e-05)
(-8.93376e-22 2.06519e-24 -4.90714e-05)
(2.06758e-24 8.92343e-22 -4.90714e-05)
(8.93376e-22 -0 -4.90714e-05)
(8.96483e-22 8.96483e-22 -4.90714e-05)
(-2.07475e-24 -2.07475e-24 -4.90714e-05)
(-1.79504e-21 -1.79504e-21 -4.90714e-05)
(-8.97521e-22 -8.97521e-22 -4.90714e-05)
(9.00642e-22 9.00642e-22 -4.90714e-05)
(8.99601e-22 8.99601e-22 -4.90714e-05)
(-0 -0 -4.90714e-05)
(-0 -0 -4.90714e-05)
(-0 9.04821e-22 -4.90714e-05)
(-1.81174e-21 -9.07962e-22 -4.90714e-05)
(-1.80964e-21 -2.71656e-21 -4.90714e-05)
(9.07967e-22 2.09896e-24 -4.90714e-05)
(1.81594e-21 1.81594e-21 -4.90714e-05)
(1.81804e-21 9.07967e-22 -4.90714e-05)
(-9.13231e-22 -1.82225e-21 -4.90714e-05)
(-9.07962e-22 4.21745e-24 -4.90714e-05)
(-2.11111e-24 1.82225e-21 -4.90714e-05)
(2.1135e-24 -0 -4.90714e-05)
(9.13236e-22 -0 -4.90714e-05)
(-1.83282e-21 -9.16412e-22 -4.90714e-05)
(4.24176e-24 2.12088e-24 -4.90714e-05)
(9.14288e-22 -1.83919e-21 -4.90714e-05)
(2.12587e-24 -9.13221e-22 -4.90714e-05)
(9.18535e-22 2.75773e-21 -4.90714e-05)
(-9.21729e-22 9.19599e-22 -4.90714e-05)
(2.13326e-24 -0 -4.90714e-05)
(9.21729e-22 -0 -4.90714e-05)
(-0 9.24935e-22 -4.90714e-05)
(-9.26006e-22 -9.28146e-22 -4.90714e-05)
(-9.24935e-22 -1.84987e-21 -4.90714e-05)
(9.28151e-22 1.8563e-21 -4.90714e-05)
(9.27078e-22 9.24929e-22 -4.90714e-05)
(-0 -9.28151e-22 -4.90714e-05)
(-9.31379e-22 -9.31379e-22 -4.90714e-05)
(-9.30302e-22 9.34613e-22 -4.90714e-05)
(9.33537e-22 9.29221e-22 -4.90714e-05)
(-2.16051e-24 -1.86707e-21 -4.90714e-05)
(2.16312e-24 -9.33537e-22 -4.90714e-05)
(-2.1655e-24 -0 -4.90714e-05)
(-9.357e-22 -0 -4.90714e-05)
(-0 -0 -4.90714e-05)
(-9.40041e-22 -9.40041e-22 -4.90714e-05)
(2.17549e-24 2.17549e-24 -4.90714e-05)
(9.40041e-22 -2.1781e-24 -4.90714e-05)
(-9.4331e-22 -9.41129e-22 -4.90714e-05)
(9.46585e-22 2.83321e-21 -4.90714e-05)
(1.88662e-21 1.88443e-21 -4.90714e-05)
(9.4659e-22 2.18809e-24 -4.90714e-05)
(-2.19082e-24 -2.19082e-24 -4.90714e-05)
(-9.4659e-22 -9.4659e-22 -4.90714e-05)
(-0 -0 -4.90714e-05)
(-9.50982e-22 -9.50982e-22 -4.90714e-05)
(9.54284e-22 2.20105e-24 -4.90714e-05)
(-4.40685e-24 -2.20343e-24 -4.90714e-05)
(-9.49877e-22 -1.90637e-21 -4.90714e-05)
(-2.20866e-24 2.20866e-24 -4.90714e-05)
(2.21103e-24 1.91079e-21 -4.90714e-05)
(-2.21365e-24 9.55394e-22 -4.90714e-05)
(2.21638e-24 -0 -4.90714e-05)
(-2.21876e-24 -9.59826e-22 -4.90714e-05)
(-9.58717e-22 -9.58717e-22 -4.90714e-05)
(9.6205e-22 9.6205e-22 -4.90714e-05)
(1.9241e-21 1.9241e-21 -4.90714e-05)
(-9.66509e-22 -2.2291e-24 -4.90714e-05)
(-2.89172e-21 -2.89396e-21 -4.90714e-05)
(-9.6428e-22 -1.92856e-21 -4.90714e-05)
(-0 -0 -4.90714e-05)
(2.90626e-21 2.90626e-21 -4.90714e-05)
(2.9029e-21 2.9029e-21 -4.90714e-05)
(-1.942e-21 -1.942e-21 -4.90714e-05)
(-1.93975e-21 -2.91187e-21 -4.90714e-05)
(-0 2.24979e-24 -4.90714e-05)
(9.74375e-22 1.9465e-21 -4.90714e-05)
(9.73248e-22 9.73248e-22 -4.90714e-05)
(-9.76632e-22 -0 -4.90714e-05)
(-9.75503e-22 -9.77763e-22 -4.90714e-05)
(-0 -9.76632e-22 -4.90714e-05)
(9.80029e-22 9.80029e-22 -4.90714e-05)
(-9.83431e-22 -2.2681e-24 -4.90714e-05)
(4.54144e-24 -9.80029e-22 -4.90714e-05)
(9.7889e-22 -0 -4.90714e-05)
(-9.82299e-22 -0 -4.90714e-05)
(9.85715e-22 9.85715e-22 -4.90714e-05)
(-2.28131e-24 -2.28131e-24 -4.90714e-05)
(2.28406e-24 9.90283e-22 -4.90714e-05)
(9.86857e-22 -4.57309e-24 -4.90714e-05)
(-0 4.57832e-24 -4.90714e-05)
(-0 -4.58381e-24 -4.90714e-05)
(-0 -9.87994e-22 -4.90714e-05)
(9.93732e-22 9.91435e-22 -4.90714e-05)
(-9.97183e-22 -9.94883e-22 -4.90714e-05)
(-1.98746e-21 2.3025e-24 -4.90714e-05)
(9.97188e-22 9.94883e-22 -4.90714e-05)
(-2.30799e-24 -9.98343e-22 -4.90714e-05)
(2.31047e-24 2.31047e-24 -4.90714e-05)
(9.98343e-22 9.98343e-22 -4.90714e-05)
(-1.00181e-21 -0 -4.90714e-05)
(1.00529e-21 1.00297e-21 -4.90714e-05)
(2.00363e-21 1.00181e-21 -4.90714e-05)
(-1.0053e-21 -1.0053e-21 -4.90714e-05)
(-2.0106e-21 -2.0106e-21 -4.90714e-05)
(-1.0053e-21 -1.0053e-21 -4.90714e-05)
(-0 -0 -4.90714e-05)
(2.01992e-21 1.00996e-21 -4.90714e-05)
(1.00646e-21 1.00879e-21 -4.90714e-05)
(2.34002e-24 1.0123e-21 -4.90714e-05)
(-2.02929e-21 -2.02929e-21 -4.90714e-05)
(-1.00761e-21 -2.02226e-21 -4.90714e-05)
(3.04277e-21 3.04512e-21 -4.90714e-05)
(-1.01935e-21 -4.70202e-24 -4.90714e-05)
(-1.01347e-21 -2.03165e-21 -4.90714e-05)
(-2.35637e-24 -0 -4.90714e-05)
(-2.03871e-21 -0 -4.90714e-05)
(2.0458e-21 2.04343e-21 -4.90714e-05)
(-1.02999e-21 -1.02763e-21 -4.90714e-05)
(-1.01462e-21 -1.01698e-21 -4.90714e-05)
(4.09397e-21 3.07107e-21 -4.90714e-05)
(-1.02883e-21 -1.02883e-21 -4.90714e-05)
(-1.02289e-21 4.75093e-24 -4.90714e-05)
(1.02646e-21 -4.7567e-24 -4.90714e-05)
(-0 4.76219e-24 -4.90714e-05)
(-1.03122e-21 1.02645e-21 -4.90714e-05)
(2.38673e-24 -2.06244e-21 -4.90714e-05)
(-2.38948e-24 -1.03122e-21 -4.90714e-05)
(2.39195e-24 1.03481e-21 -4.90714e-05)
(-2.39483e-24 -2.39483e-24 -4.90714e-05)
(1.0396e-21 1.0396e-21 -4.90714e-05)
(2.07201e-21 -4.80094e-24 -4.90714e-05)
(-0 -1.0348e-21 -4.90714e-05)
(-2.08162e-21 -2.4061e-24 -4.90714e-05)
(-2.07921e-21 2.40885e-24 -4.90714e-05)
(1.04322e-21 1.04081e-21 -4.90714e-05)
(-1.04684e-21 -2.08886e-21 -4.90714e-05)
(1.05047e-21 2.09611e-21 -4.90714e-05)
(2.08644e-21 1.03717e-21 -4.90714e-05)
(-1.04564e-21 -2.08885e-21 -4.90714e-05)
(-0 2.09612e-21 -4.90714e-05)
(-2.10098e-21 -1.05292e-21 -4.90714e-05)
(4.8625e-24 -1.04684e-21 -4.90714e-05)
(2.10098e-21 1.05049e-21 -4.90714e-05)
(1.05414e-21 -1.05414e-21 -4.90714e-05)
(1.05292e-21 2.43963e-24 -4.90714e-05)
(-1.05659e-21 1.05414e-21 -4.90714e-05)
(-1.05536e-21 -1.05781e-21 -4.90714e-05)
(-0 2.44816e-24 -4.90714e-05)
(-2.12052e-21 -1.06271e-21 -4.90714e-05)
(4.90788e-24 4.90788e-24 -4.90714e-05)
(2.12052e-21 1.0578e-21 -4.90714e-05)
(-1.06395e-21 -1.06149e-21 -4.90714e-05)
(-1.06272e-21 -0 -4.90714e-05)
(1.06641e-21 1.06641e-21 -4.90714e-05)
(-1.07012e-21 -2.46795e-24 -4.90714e-05)
(4.94199e-24 2.47099e-24 -4.90714e-05)
(3.20542e-21 2.13777e-21 -4.90714e-05)
(-2.47663e-24 -1.07384e-21 -4.90714e-05)
(-1.07012e-21 4.95934e-24 -4.90714e-05)
(-1.07384e-21 1.06888e-21 -4.90714e-05)
(-1.0726e-21 -1.0726e-21 -4.90714e-05)
(-0 -2.15266e-21 -4.90714e-05)
(1.07758e-21 4.98188e-24 -4.90714e-05)
(1.07633e-21 2.15266e-21 -4.90714e-05)
(-1.08007e-21 -1.08007e-21 -4.90714e-05)
(2.49961e-24 2.49961e-24 -4.90714e-05)
(-2.50266e-24 -2.50266e-24 -4.90714e-05)
(2.5054e-24 -1.08132e-21 -4.90714e-05)
(1.08258e-21 1.08508e-21 -4.90714e-05)
(-0 1.08383e-21 -4.90714e-05)
(-1.0876e-21 -0 -4.90714e-05)
(2.51727e-24 -1.08886e-21 -4.90714e-05)
(2.17772e-21 2.52001e-24 -4.90714e-05)
(-1.0939e-21 -2.52275e-24 -4.90714e-05)
(-2.18024e-21 -1.09012e-21 -4.90714e-05)
(1.09391e-21 1.09391e-21 -4.90714e-05)
(1.09264e-21 1.09264e-21 -4.90714e-05)
(-0 -0 -4.90714e-05)
(-0 -0 -4.90714e-05)
(-1.09898e-21 -2.19797e-21 -4.90714e-05)
(2.54346e-24 5.08691e-24 -4.90714e-05)
(1.09898e-21 2.19797e-21 -4.90714e-05)
(-0 -0 -4.90714e-05)
(-1.10408e-21 -0 -4.90714e-05)
(-2.20817e-21 -2.21072e-21 -4.90714e-05)
(-1.1043e-21 -2.20859e-21 -4.90808e-05)
)
;

boundaryField
{
    top
    {
        type            calculated;
        value           uniform (-1.1043e-21 -2.20859e-21 -4.90856e-05);
    }
    left
    {
        type            empty;
    }
    right
    {
        type            empty;
    }
    front
    {
        type            empty;
    }
    back
    {
        type            empty;
    }
    bottom
    {
        type            calculated;
        value           uniform (5.53321e-22 5.53321e-22 -4.90714e-05);
    }
}


// ************************************************************************* //
