/*--------------------------------*- C++ -*----------------------------------*\
  =========                 |
  \\      /  F ield         | OpenFOAM: The Open Source CFD Toolbox
   \\    /   O peration     | Website:  https://openfoam.org
    \\  /    A nd           | Version:  7
     \\/     M anipulation  |
\*---------------------------------------------------------------------------*/
FoamFile
{
    version     2.0;
    format      ascii;
    class       volVectorField;
    location    "0.000";
    object      U;
}
// * * * * * * * * * * * * * * * * * * * * * * * * * * * * * * * * * * * * * //

dimensions      [0 1 -1 0 0 0 0];

internalField   nonuniform List<vector> 
300
(
(-7.66128e-22 -7.66128e-22 -4.90714e-05)
(3.83064e-22 3.83064e-22 -4.90714e-05)
(1.14919e-21 1.14919e-21 -4.90714e-05)
(-3.83064e-22 -3.83064e-22 -4.90714e-05)
(-3.83064e-22 -3.83064e-22 -4.90714e-05)
(-0 -0 -4.90714e-05)
(-0 -0 -4.90714e-05)
(-0 -0 -4.90714e-05)
(3.83064e-22 -0 -4.90714e-05)
(-1.1341e-36 3.83064e-22 -4.90714e-05)
(-7.66128e-22 1.1341e-36 -4.90714e-05)
(9.82884e-37 -3.83064e-22 -4.90714e-05)
(3.83064e-22 -3.83064e-22 -4.90714e-05)
(-0 -3.83064e-22 -4.90714e-05)
(-0 3.83064e-22 -4.90714e-05)
(-0 3.83064e-22 -4.90714e-05)
(-0 -0 -4.90714e-05)
(3.83064e-22 -0 -4.90714e-05)
(3.83064e-22 -0 -4.90714e-05)
(-7.66128e-22 -3.83064e-22 -4.90714e-05)
(-3.83064e-22 6.35094e-36 -4.90714e-05)
(3.83064e-22 3.83064e-22 -4.90714e-05)
(-0 3.83064e-22 -4.90714e-05)
(-0 2.11698e-36 -4.90714e-05)
(-0 -7.66128e-22 -4.90714e-05)
(-3.83064e-22 -3.83064e-22 -4.90714e-05)
(8.46792e-36 3.83064e-22 -4.90714e-05)
(7.66128e-22 7.66128e-22 -4.90714e-05)
(3.83064e-22 7.56065e-38 -4.90714e-05)
(-3.83064e-22 -3.83064e-22 -4.90714e-05)
(3.49471e-70 3.83064e-22 -4.90714e-05)
(-0 -0 -4.90714e-05)
(-3.83064e-22 -3.83064e-22 -4.90714e-05)
(3.83064e-22 3.83064e-22 -4.90714e-05)
(-3.83064e-22 -3.83064e-22 -4.90714e-05)
(-3.83064e-22 -3.83064e-22 -4.90714e-05)
(3.83064e-22 3.83064e-22 -4.90714e-05)
(-0 -0 -4.90714e-05)
(-0 -0 -4.90714e-05)
(3.83064e-22 3.83064e-22 -4.90714e-05)
(-3.83064e-22 -3.83064e-22 -4.90714e-05)
(-3.83064e-22 -7.66128e-22 -4.90714e-05)
(3.83064e-22 3.83064e-22 -4.90714e-05)
(3.83064e-22 3.83064e-22 -4.90714e-05)
(4.23396e-36 -0 -4.90714e-05)
(-3.83064e-22 -0 -4.90714e-05)
(-0 -0 -4.90714e-05)
(-3.83064e-22 -3.83064e-22 -4.90714e-05)
(3.83064e-22 3.83064e-22 -4.90714e-05)
(3.83064e-22 3.83064e-22 -4.90714e-05)
(8.46792e-36 -7.66128e-22 -4.90714e-05)
(-7.56065e-38 7.56065e-38 -4.90714e-05)
(-3.83064e-22 3.83064e-22 -4.90714e-05)
(-0 -0 -4.90714e-05)
(-0 -0 -4.90714e-05)
(-0 -0 -4.90714e-05)
(-0 -0 -4.90714e-05)
(-0 -0 -4.90714e-05)
(-0 -0 -4.90714e-05)
(3.83064e-22 -0 -4.90714e-05)
(-8.54353e-36 -0 -4.90714e-05)
(-3.83064e-22 -0 -4.90714e-05)
(-0 -3.83064e-22 -4.90714e-05)
(-0 -0 -4.90714e-05)
(-0 -0 -4.90714e-05)
(-0 8.54353e-36 -4.90714e-05)
(-0 -8.46792e-36 -4.90714e-05)
(-0 7.56065e-38 -4.90714e-05)
(-0 -0 -4.90714e-05)
(-0 -8.46792e-36 -4.90714e-05)
(3.83064e-22 3.83064e-22 -4.90714e-05)
(-8.46792e-36 -0 -4.90714e-05)
(-3.83064e-22 -0 -4.90714e-05)
(-0 -0 -4.90714e-05)
(3.83064e-22 -0 -4.90714e-05)
(-7.56065e-38 -0 -4.90714e-05)
(-3.83064e-22 -0 -4.90714e-05)
(-0 -0 -4.90714e-05)
(-0 -0 -4.90714e-05)
(-3.83064e-22 -3.83064e-22 -4.90714e-05)
(8.54353e-36 8.54353e-36 -4.90714e-05)
(3.83064e-22 -3.40229e-35 -4.90714e-05)
(-0 -0 -4.90714e-05)
(-0 -2.54794e-35 -4.90714e-05)
(3.83064e-22 -1.1649e-70 -4.90714e-05)
(3.83064e-22 3.83064e-22 -4.90714e-05)
(-3.83064e-22 -3.83064e-22 -4.90714e-05)
(-3.83064e-22 -3.83064e-22 -4.90714e-05)
(-0 3.83064e-22 -4.90714e-05)
(3.83064e-22 3.83064e-22 -4.90714e-05)
(-0 -0 -4.90714e-05)
(-3.83064e-22 -0 -4.90714e-05)
(-0 -0 -4.90714e-05)
(-0 -0 -4.90714e-05)
(-0 -0 -4.90714e-05)
(-0 -0 -4.90714e-05)
(-0 -0 -4.90714e-05)
(3.83064e-22 -0 -4.90714e-05)
(-1.69358e-35 -0 -4.90714e-05)
(-3.83064e-22 -0 -4.90714e-05)
(-0 -0 -4.90714e-05)
(-0 -0 -4.90714e-05)
(-0 -0 -4.90714e-05)
(-0 -0 -4.90714e-05)
(-0 -0 -4.90714e-05)
(-0 -0 -4.90714e-05)
(-0 -0 -4.90714e-05)
(-3.83064e-22 -3.83064e-22 -4.90714e-05)
(7.56065e-38 7.56065e-38 -4.90714e-05)
(3.83064e-22 1.69358e-35 -4.90714e-05)
(-0 -0 -4.90714e-05)
(-0 3.83064e-22 -4.90714e-05)
(-0 -0 -4.90714e-05)
(-0 -0 -4.90714e-05)
(3.83064e-22 -0 -4.90714e-05)
(-0 -0 -4.90714e-05)
(-3.83064e-22 -0 -4.90714e-05)
(-0 -0 -4.90714e-05)
(-0 -0 -4.90714e-05)
(-0 -0 -4.90714e-05)
(-0 -3.83064e-22 -4.90714e-05)
(3.83064e-22 7.56065e-38 -4.90714e-05)
(-3.38717e-35 3.83064e-22 -4.90714e-05)
(-3.83064e-22 -0 -4.90714e-05)
(-0 -0 -4.90714e-05)
(-0 -0 -4.90714e-05)
(-0 -0 -4.90714e-05)
(-0 -0 -4.90714e-05)
(-0 -0 -4.90714e-05)
(-0 -0 -4.90714e-05)
(3.83064e-22 -0 -4.90714e-05)
(1.70871e-35 -0 -4.90714e-05)
(-3.83064e-22 -0 -4.90714e-05)
(-0 -0 -4.90714e-05)
(-0 -0 -4.90714e-05)
(-0 -0 -4.90714e-05)
(3.83064e-22 3.83064e-22 -4.90714e-05)
(-7.56065e-38 -7.56065e-38 -4.90714e-05)
(-7.66128e-22 -7.66128e-22 -4.90714e-05)
(-3.83064e-22 -3.83064e-22 -4.90714e-05)
(3.83064e-22 3.83064e-22 -4.90714e-05)
(3.83064e-22 3.83064e-22 -4.90714e-05)
(-0 -0 -4.90714e-05)
(-0 -0 -4.90714e-05)
(-0 -0 -4.90714e-05)
(-3.83064e-22 -3.83064e-22 -4.90714e-05)
(-3.38717e-35 -3.83064e-22 -4.90714e-05)
(7.66128e-22 3.83064e-22 -4.90714e-05)
(3.39473e-35 3.83064e-22 -4.90714e-05)
(-3.83064e-22 -0 -4.90714e-05)
(-0 -0 -4.90714e-05)
(-0 -0 -4.90714e-05)
(-0 -0 -4.90714e-05)
(-0 -3.83064e-22 -4.90714e-05)
(-3.83064e-22 -3.83064e-22 -4.90714e-05)
(-0 -0 -4.90714e-05)
(3.83064e-22 3.83064e-22 -4.90714e-05)
(-0 3.83064e-22 -4.90714e-05)
(-0 -3.83064e-22 -4.90714e-05)
(-3.83064e-22 -3.83064e-22 -4.90714e-05)
(3.40985e-35 3.83064e-22 -4.90714e-05)
(3.83064e-22 3.83064e-22 -4.90714e-05)
(-0 -3.83064e-22 -4.90714e-05)
(-3.83064e-22 -3.83064e-22 -4.90714e-05)
(1.69358e-35 3.83064e-22 -4.90714e-05)
(3.83064e-22 3.83064e-22 -4.90714e-05)
(-0 -3.83064e-22 -4.90714e-05)
(-0 1.70871e-35 -4.90714e-05)
(-0 3.83064e-22 -4.90714e-05)
(-0 -0 -4.90714e-05)
(-0 -0 -4.90714e-05)
(-3.83064e-22 -3.83064e-22 -4.90714e-05)
(3.83064e-22 3.83064e-22 -4.90714e-05)
(3.83064e-22 3.41741e-35 -4.90714e-05)
(-7.66128e-22 -7.66128e-22 -4.90714e-05)
(1.70115e-35 3.83064e-22 -4.90714e-05)
(7.66128e-22 3.83064e-22 -4.90714e-05)
(3.40229e-35 -0 -4.90714e-05)
(-7.66128e-22 -3.83064e-22 -4.90714e-05)
(-1.70115e-35 -3.83064e-22 -4.90714e-05)
(3.83064e-22 3.83064e-22 -4.90714e-05)
(-0 3.83064e-22 -4.90714e-05)
(-0 -0 -4.90714e-05)
(3.83064e-22 -0 -4.90714e-05)
(-3.40229e-35 -0 -4.90714e-05)
(-3.83064e-22 -0 -4.90714e-05)
(-0 -0 -4.90714e-05)
(-0 -0 -4.90714e-05)
(-0 -0 -4.90714e-05)
(-0 -0 -4.90714e-05)
(-0 -0 -4.90714e-05)
(-0 -0 -4.90714e-05)
(-0 -3.83064e-22 -4.90714e-05)
(-0 -3.83064e-22 -4.90714e-05)
(-0 -0 -4.90714e-05)
(-0 3.83064e-22 -4.90714e-05)
(-3.83064e-22 -8.49817e-35 -4.90714e-05)
(3.83064e-22 -1.68602e-35 -4.90714e-05)
(3.83064e-22 3.83064e-22 -4.90714e-05)
(-3.83064e-22 -0 -4.90714e-05)
(-3.83064e-22 -0 -4.90714e-05)
(-0 -0 -4.90714e-05)
(-0 -0 -4.90714e-05)
(-0 -0 -4.90714e-05)
(3.83064e-22 -0 -4.90714e-05)
(-0 -0 -4.90714e-05)
(-3.83064e-22 -0 -4.90714e-05)
(3.83064e-22 3.83064e-22 -4.90714e-05)
(1.36092e-34 6.80458e-35 -4.90714e-05)
(-3.83064e-22 -3.83064e-22 -4.90714e-05)
(3.40229e-35 -0 -4.90714e-05)
(-0 -0 -4.90714e-05)
(3.40229e-35 -0 -4.90714e-05)
(3.40229e-35 -0 -4.90714e-05)
(6.81214e-35 -0 -4.90714e-05)
(-0 -0 -4.90714e-05)
(3.83064e-22 -0 -4.90714e-05)
(3.83064e-22 3.83064e-22 -4.90714e-05)
(-3.83064e-22 1.86384e-69 -4.90714e-05)
(-3.83064e-22 1.86384e-69 -4.90714e-05)
(-4.65961e-70 -4.65961e-70 -4.90714e-05)
(6.80458e-35 -3.83064e-22 -4.90714e-05)
(-0 -0 -4.90714e-05)
(6.80458e-35 -0 -4.90714e-05)
(3.83064e-22 3.83064e-22 -4.90714e-05)
(-3.83064e-22 3.40229e-35 -4.90714e-05)
(3.40229e-35 -3.83064e-22 -4.90714e-05)
(3.40985e-35 -0 -4.90714e-05)
(3.40229e-35 -0 -4.90714e-05)
(3.83064e-22 -0 -4.90714e-05)
(-0 -0 -4.90714e-05)
(-0 -0 -4.90714e-05)
(-0 -0 -4.90714e-05)
(-3.83064e-22 -0 -4.90714e-05)
(6.80458e-35 -0 -4.90714e-05)
(-0 -0 -4.90714e-05)
(3.40229e-35 -0 -4.90714e-05)
(-0 -0 -4.90714e-05)
(-3.40229e-35 -0 -4.90714e-05)
(-0 -0 -4.90714e-05)
(-3.40229e-35 -0 -4.90714e-05)
(-0 -0 -4.90714e-05)
(-3.40229e-35 3.83064e-22 -4.90714e-05)
(-1.02069e-34 -3.83064e-22 -4.90714e-05)
(3.83064e-22 -1.3594e-34 -4.90714e-05)
(3.83064e-22 3.83064e-22 -4.90714e-05)
(-6.80458e-35 -6.80458e-35 -4.90714e-05)
(-3.83064e-22 3.40229e-35 -4.90714e-05)
(-3.83064e-22 -3.83064e-22 -4.90714e-05)
(3.83064e-22 -0 -4.90714e-05)
(-3.83064e-22 -0 -4.90714e-05)
(3.40229e-35 -0 -4.90714e-05)
(-0 -0 -4.90714e-05)
(-3.40229e-35 -0 -4.90714e-05)
(6.80458e-35 -0 -4.90714e-05)
(-3.40229e-35 -0 -4.90714e-05)
(6.80458e-35 -0 -4.90714e-05)
(-0 -0 -4.90714e-05)
(3.83064e-22 -0 -4.90714e-05)
(-0 -0 -4.90714e-05)
(-3.83064e-22 -0 -4.90714e-05)
(6.80458e-35 -0 -4.90714e-05)
(3.83064e-22 -0 -4.90714e-05)
(-0 -0 -4.90714e-05)
(-3.83064e-22 -0 -4.90714e-05)
(-3.40229e-35 -0 -4.90714e-05)
(3.40229e-35 -0 -4.90714e-05)
(-0 -0 -4.90714e-05)
(3.83064e-22 -0 -4.90714e-05)
(-0 -0 -4.90714e-05)
(-0 -0 -4.90714e-05)
(-0 3.83064e-22 -4.90714e-05)
(-3.83064e-22 2.3298e-70 -4.90714e-05)
(1.1649e-70 -3.83064e-22 -4.90714e-05)
(3.83064e-22 -0 -4.90714e-05)
(-7.66128e-22 -7.66128e-22 -4.90714e-05)
(-1.51213e-37 -1.51213e-37 -4.90714e-05)
(7.66128e-22 7.66128e-22 -4.90714e-05)
(-0 -0 -4.90714e-05)
(-0 -0 -4.90714e-05)
(-0 -0 -4.90714e-05)
(-0 -0 -4.90714e-05)
(-0 -0 -4.90714e-05)
(-3.83064e-22 -3.83064e-22 -4.90714e-05)
(3.40229e-35 3.40229e-35 -4.90714e-05)
(3.83064e-22 3.83064e-22 -4.90714e-05)
(3.83064e-22 3.83064e-22 -4.90714e-05)
(-3.83064e-22 3.40229e-35 -4.90714e-05)
(-3.83064e-22 -3.83064e-22 -4.90714e-05)
(-0 -0 -4.90714e-05)
(-3.40229e-35 -0 -4.90714e-05)
(-3.83064e-22 -7.66128e-22 -4.90714e-05)
(-1.36394e-34 -1.36394e-34 -4.90714e-05)
(7.66128e-22 7.66128e-22 -4.90714e-05)
(-0 -0 -4.90714e-05)
(-0 -0 -4.90714e-05)
(-0 -0 -4.90714e-05)
(-0 -0 -4.90714e-05)
(-0 -0 -4.90714e-05)
(-0 -0 0.00220821)
)
;

boundaryField
{
    top
    {
        type            extrapolatedCalculated;
        value           uniform (-0 -0 0.000884193);
    }
    left
    {
        type            empty;
    }
    right
    {
        type            empty;
    }
    front
    {
        type            empty;
    }
    back
    {
        type            empty;
    }
    bottom
    {
        type            extrapolatedCalculated;
        value           uniform (-7.66128e-22 -7.66128e-22 -4.90714e-05);
    }
}


// ************************************************************************* //
