/*--------------------------------*- C++ -*----------------------------------*\
  =========                 |
  \\      /  F ield         | OpenFOAM: The Open Source CFD Toolbox
   \\    /   O peration     | Website:  https://openfoam.org
    \\  /    A nd           | Version:  7
     \\/     M anipulation  |
\*---------------------------------------------------------------------------*/
FoamFile
{
    version     2.0;
    format      ascii;
    class       volScalarField;
    location    "863992.485";
    object      DOC;
}
// * * * * * * * * * * * * * * * * * * * * * * * * * * * * * * * * * * * * * //

dimensions      [1 -3 0 0 0 0 0];

internalField   nonuniform List<scalar> 
200
(
0.000205439
0.000205686
0.000205852
0.000206017
0.000206183
0.000206349
0.000206515
0.000206681
0.000206848
0.000207015
0.000207182
0.000207349
0.000207517
0.000207685
0.000207853
0.000208021
0.000208189
0.000208358
0.000208527
0.000208696
0.000208866
0.000209035
0.000209205
0.000209375
0.000209545
0.000209716
0.000209886
0.000210057
0.000210228
0.0002104
0.000210571
0.000210743
0.000210915
0.000211087
0.000211259
0.000211432
0.000211605
0.000211777
0.000211951
0.000212124
0.000212297
0.000212471
0.000212645
0.000212819
0.000212993
0.000213167
0.000213341
0.000213516
0.00021369
0.000213865
0.00021404
0.000214215
0.00021439
0.000214565
0.000214741
0.000214916
0.000215092
0.000215267
0.000215443
0.000215618
0.000215794
0.00021597
0.000216146
0.000216321
0.000216497
0.000216673
0.000216848
0.000217024
0.000217199
0.000217375
0.00021755
0.000217725
0.0002179
0.000218075
0.00021825
0.000218424
0.000218598
0.000218772
0.000218946
0.00021912
0.000219293
0.000219466
0.000219638
0.00021981
0.000219982
0.000220153
0.000220324
0.000220494
0.000220664
0.000220833
0.000221001
0.000221169
0.000221336
0.000221502
0.000221668
0.000221833
0.000221996
0.000222159
0.000222322
0.000222483
0.000222642
0.000222801
0.000222959
0.000223115
0.000223271
0.000223424
0.000223577
0.000223728
0.000223877
0.000224025
0.000224171
0.000224315
0.000224458
0.000224598
0.000224737
0.000224873
0.000225008
0.00022514
0.00022527
0.000225397
0.000225522
0.000225644
0.000225763
0.000225879
0.000225993
0.000226103
0.00022621
0.000226314
0.000226414
0.00022651
0.000226603
0.000226692
0.000226777
0.000226858
0.000226934
0.000227006
0.000227073
0.000227136
0.000227193
0.000227245
0.000227292
0.000227333
0.000227369
0.000227399
0.000227422
0.00022744
0.000227451
0.000227456
0.000227457
0.000227445
0.000227431
0.000227404
0.000227375
0.000227333
0.000227289
0.000227231
0.000227171
0.000227096
0.00022702
0.000226929
0.000226836
0.000226729
0.00022662
0.000226499
0.000226374
0.000226239
0.000226102
0.000225955
0.000225809
0.000225657
0.000225506
0.000225357
0.000225212
0.000225074
0.000224949
0.000224841
0.000224755
0.000224699
0.000224674
0.000224698
0.000224819
0.000225006
0.000225332
0.000225788
0.000226456
0.000227361
0.000228607
0.000230273
0.000232523
0.000235539
0.000239623
0.0002452
0.000252955
0.000264024
0.000280458
0.000306413
0.000351655
0.000445039
0.000701383
0.0023146
)
;

boundaryField
{
    top
    {
        type            uniformInletOutlet;
        uniformInletValue constant 0.01;
        value           uniform 0.01;
    }
    left
    {
        type            empty;
    }
    right
    {
        type            empty;
    }
    front
    {
        type            empty;
    }
    back
    {
        type            empty;
    }
    bottom
    {
        type            zeroGradient;
    }
}


// ************************************************************************* //
