/*--------------------------------*- C++ -*----------------------------------*\
  =========                 |
  \\      /  F ield         | OpenFOAM: The Open Source CFD Toolbox
   \\    /   O peration     | Website:  https://openfoam.org
    \\  /    A nd           | Version:  7
     \\/     M anipulation  |
\*---------------------------------------------------------------------------*/
FoamFile
{
    version     2.0;
    format      ascii;
    class       volScalarField;
    location    "863992.485";
    object      EPS;
}
// * * * * * * * * * * * * * * * * * * * * * * * * * * * * * * * * * * * * * //

dimensions      [1 -3 0 0 0 0 0];

internalField   nonuniform List<scalar> 
200
(
0.000107801
0.000107872
0.000107933
0.000107998
0.000108063
0.000108133
0.000108204
0.00010828
0.000108357
0.000108439
0.000108523
0.000108612
0.000108703
0.0001088
0.000108899
0.000109003
0.000109111
0.000109224
0.000109341
0.000109463
0.00010959
0.000109723
0.00010986
0.000110004
0.000110153
0.000110309
0.00011047
0.000110639
0.000110814
0.000110997
0.000111187
0.000111385
0.000111591
0.000111806
0.000112029
0.000112262
0.000112504
0.000112756
0.000113018
0.000113292
0.000113576
0.000113872
0.00011418
0.000114501
0.000114835
0.000115183
0.000115546
0.000115923
0.000116315
0.000116724
0.00011715
0.000117593
0.000118055
0.000118535
0.000119036
0.000119557
0.000120099
0.000120664
0.000121251
0.000121864
0.000122501
0.000123165
0.000123855
0.000124575
0.000125324
0.000126103
0.000126915
0.00012776
0.000128639
0.000129555
0.000130508
0.0001315
0.000132532
0.000133607
0.000134726
0.00013589
0.000137101
0.000138362
0.000139674
0.000141039
0.00014246
0.000143938
0.000145476
0.000147076
0.00014874
0.000150472
0.000152273
0.000154146
0.000156095
0.000158122
0.00016023
0.000162422
0.000164702
0.000167073
0.000169539
0.000172102
0.000174768
0.00017754
0.000180422
0.000183419
0.000186534
0.000189774
0.000193142
0.000196644
0.000200285
0.00020407
0.000208006
0.000212098
0.000216353
0.000220777
0.000225378
0.000230162
0.000235138
0.000240312
0.000245693
0.000251291
0.000257114
0.000263171
0.000269474
0.000276031
0.000282855
0.000289957
0.00029735
0.000305046
0.000313058
0.000321402
0.000330092
0.000339144
0.000348575
0.000358402
0.000368645
0.000379323
0.000390456
0.000402068
0.000414181
0.000426821
0.000440012
0.000453785
0.000468167
0.000483191
0.000498889
0.000515298
0.000532456
0.000550403
0.000569182
0.000588839
0.000609424
0.000630989
0.000653592
0.000677294
0.00070216
0.000728262
0.000755675
0.000784482
0.000814774
0.000846646
0.000880204
0.000915565
0.000952854
0.000992209
0.00103378
0.00107774
0.00112427
0.00117357
0.00122587
0.00128143
0.00134054
0.0014035
0.00147068
0.0015425
0.00161941
0.00170196
0.00179074
0.00188647
0.00198997
0.00210219
0.00222426
0.00235752
0.00250354
0.00266424
0.00284193
0.00303943
0.00326024
0.00350871
0.00379038
0.00411237
0.00448397
0.00491758
0.00543013
0.00604534
0.00679759
0.00773872
0.00895092
0.0105732
0.0128617
0.0163484
0.0223487
0.0350269
0.0719967
0.234291
)
;

boundaryField
{
    top
    {
        type            zeroGradient;
    }
    left
    {
        type            empty;
    }
    right
    {
        type            empty;
    }
    front
    {
        type            empty;
    }
    back
    {
        type            empty;
    }
    bottom
    {
        type            zeroGradient;
    }
}


// ************************************************************************* //
