/*--------------------------------*- C++ -*----------------------------------*\
  =========                 |
  \\      /  F ield         | OpenFOAM: The Open Source CFD Toolbox
   \\    /   O peration     | Website:  https://openfoam.org
    \\  /    A nd           | Version:  7
     \\/     M anipulation  |
\*---------------------------------------------------------------------------*/
FoamFile
{
    version     2.0;
    format      ascii;
    class       volScalarField;
    location    "0.000";
    object      h;
}
// * * * * * * * * * * * * * * * * * * * * * * * * * * * * * * * * * * * * * //

dimensions      [0 1 0 0 0 0 0];

internalField   nonuniform List<scalar> 
200
(
-0.438809
-0.438809
-0.43881
-0.438811
-0.438811
-0.438813
-0.438814
-0.438815
-0.438816
-0.438817
-0.438818
-0.43882
-0.438821
-0.438822
-0.438823
-0.438825
-0.438826
-0.438827
-0.438829
-0.43883
-0.438831
-0.438832
-0.438834
-0.438835
-0.438836
-0.438838
-0.438839
-0.43884
-0.438841
-0.438843
-0.438844
-0.438845
-0.438846
-0.438848
-0.438849
-0.43885
-0.438852
-0.438853
-0.438854
-0.438855
-0.438857
-0.438858
-0.438859
-0.43886
-0.438862
-0.438863
-0.438864
-0.438865
-0.438867
-0.438868
-0.438869
-0.438871
-0.438872
-0.438873
-0.438874
-0.438876
-0.438877
-0.438878
-0.438879
-0.438881
-0.438882
-0.438883
-0.438884
-0.438886
-0.438887
-0.438888
-0.438889
-0.438891
-0.438892
-0.438893
-0.438894
-0.438895
-0.438897
-0.438898
-0.438899
-0.4389
-0.438902
-0.438903
-0.438904
-0.438905
-0.438906
-0.438908
-0.438909
-0.43891
-0.438911
-0.438912
-0.438914
-0.438915
-0.438916
-0.438917
-0.438918
-0.438919
-0.438921
-0.438922
-0.438923
-0.438924
-0.438925
-0.438926
-0.438927
-0.438929
-0.43893
-0.438931
-0.438932
-0.438933
-0.438934
-0.438935
-0.438936
-0.438937
-0.438938
-0.438939
-0.43894
-0.438941
-0.438942
-0.438943
-0.438944
-0.438945
-0.438946
-0.438947
-0.438948
-0.438949
-0.43895
-0.438951
-0.438952
-0.438953
-0.438954
-0.438954
-0.438955
-0.438956
-0.438957
-0.438958
-0.438958
-0.438959
-0.43896
-0.43896
-0.438961
-0.438962
-0.438962
-0.438963
-0.438963
-0.438964
-0.438964
-0.438965
-0.438965
-0.438965
-0.438966
-0.438966
-0.438966
-0.438966
-0.438967
-0.438967
-0.438967
-0.438966
-0.438966
-0.438966
-0.438966
-0.438966
-0.438965
-0.438965
-0.438964
-0.438963
-0.438962
-0.438961
-0.43896
-0.438959
-0.438958
-0.438956
-0.438955
-0.438953
-0.438951
-0.438948
-0.438946
-0.438943
-0.43894
-0.438937
-0.438933
-0.438929
-0.438924
-0.438919
-0.438913
-0.438907
-0.4389
-0.438892
-0.438884
-0.438874
-0.438862
-0.43885
-0.438835
-0.438818
-0.438798
-0.438774
-0.438745
-0.43871
-0.438667
-0.438611
-0.438535
-0.438428
-0.43826
-0.437942
-0.437125
-0.433985
)
;

boundaryField
{
    top
    {
        type            fixedGradient;
        gradient        uniform -1;
        // value           uniform -0.432;
    }
    left
    {
        type            empty;
    }
    right
    {
        type            empty;
    }
    front
    {
        type            empty;
    }
    back
    {
        type            empty;
    }
    bottom
    {
        type            fixedGradient;
        gradient        uniform 0;
    }
}


// ************************************************************************* //
