/*--------------------------------*- C++ -*----------------------------------*\
  =========                 |
  \\      /  F ield         | OpenFOAM: The Open Source CFD Toolbox
   \\    /   O peration     | Website:  https://openfoam.org
    \\  /    A nd           | Version:  7
     \\/     M anipulation  |
\*---------------------------------------------------------------------------*/
FoamFile
{
    version     2.0;
    format      ascii;
    class       volScalarField;
    location    "0.000";
    object      hydraulicCond;
}
// * * * * * * * * * * * * * * * * * * * * * * * * * * * * * * * * * * * * * //

dimensions      [0 1 -1 0 0 0 0];

internalField   nonuniform List<scalar> 
200
(
2.68345e-06
2.68345e-06
2.68336e-06
2.68327e-06
2.68327e-06
2.68309e-06
2.683e-06
2.68292e-06
2.68283e-06
2.68274e-06
2.68265e-06
2.68247e-06
2.68238e-06
2.68229e-06
2.6822e-06
2.68203e-06
2.68194e-06
2.68185e-06
2.68164e-06
2.68155e-06
2.68146e-06
2.68137e-06
2.6812e-06
2.68111e-06
2.68102e-06
2.68084e-06
2.68075e-06
2.68067e-06
2.68058e-06
2.6804e-06
2.68031e-06
2.68022e-06
2.68013e-06
2.67996e-06
2.67987e-06
2.67978e-06
2.6796e-06
2.67951e-06
2.67942e-06
2.67933e-06
2.67916e-06
2.67907e-06
2.67898e-06
2.67889e-06
2.67871e-06
2.67863e-06
2.67851e-06
2.67842e-06
2.67824e-06
2.67815e-06
2.67806e-06
2.67788e-06
2.6778e-06
2.67771e-06
2.67762e-06
2.67744e-06
2.67735e-06
2.67726e-06
2.67714e-06
2.67697e-06
2.67688e-06
2.67679e-06
2.6767e-06
2.67652e-06
2.67644e-06
2.67635e-06
2.67626e-06
2.67605e-06
2.67596e-06
2.67587e-06
2.67578e-06
2.6757e-06
2.67552e-06
2.6754e-06
2.67531e-06
2.67522e-06
2.67505e-06
2.67496e-06
2.67484e-06
2.67475e-06
2.67466e-06
2.67448e-06
2.67436e-06
2.67428e-06
2.67419e-06
2.6741e-06
2.67389e-06
2.6738e-06
2.67371e-06
2.67359e-06
2.6735e-06
2.67339e-06
2.67321e-06
2.67312e-06
2.673e-06
2.67291e-06
2.67279e-06
2.6727e-06
2.67258e-06
2.67241e-06
2.67229e-06
2.6722e-06
2.67208e-06
2.67199e-06
2.67187e-06
2.67175e-06
2.67166e-06
2.67154e-06
2.67143e-06
2.67134e-06
2.67122e-06
2.6711e-06
2.67098e-06
2.67086e-06
2.67074e-06
2.67065e-06
2.67053e-06
2.67041e-06
2.67026e-06
2.67014e-06
2.67002e-06
2.6699e-06
2.66978e-06
2.66963e-06
2.66951e-06
2.66948e-06
2.66933e-06
2.66921e-06
2.66906e-06
2.66894e-06
2.66888e-06
2.66873e-06
2.66858e-06
2.66852e-06
2.66837e-06
2.66822e-06
2.66816e-06
2.66801e-06
2.66791e-06
2.66776e-06
2.66767e-06
2.66749e-06
2.6674e-06
2.6673e-06
2.66712e-06
2.66703e-06
2.6669e-06
2.66681e-06
2.6666e-06
2.66648e-06
2.66635e-06
2.66632e-06
2.66616e-06
2.66601e-06
2.66585e-06
2.6657e-06
2.6656e-06
2.66541e-06
2.66531e-06
2.66519e-06
2.66506e-06
2.66493e-06
2.66477e-06
2.66461e-06
2.66442e-06
2.66432e-06
2.6641e-06
2.66393e-06
2.66377e-06
2.66366e-06
2.66343e-06
2.66326e-06
2.66306e-06
2.66283e-06
2.66263e-06
2.66239e-06
2.66221e-06
2.66194e-06
2.66173e-06
2.66139e-06
2.66108e-06
2.66076e-06
2.66029e-06
2.65986e-06
2.65943e-06
2.65879e-06
2.65813e-06
2.6573e-06
2.65633e-06
2.65516e-06
2.65365e-06
2.65161e-06
2.64879e-06
2.64472e-06
2.63856e-06
2.62786e-06
2.60645e-06
2.55197e-06
2.36817e-06
1.68191e-06
)
;

boundaryField
{
    top
    {
        type            calculated;
        value           uniform 1.42577e-06;
    }
    left
    {
        type            empty;
    }
    right
    {
        type            empty;
    }
    front
    {
        type            empty;
    }
    back
    {
        type            empty;
    }
    bottom
    {
        type            calculated;
        value           uniform 2.68345e-06;
    }
}


// ************************************************************************* //
