/*--------------------------------*- C++ -*----------------------------------*\
  =========                 |
  \\      /  F ield         | OpenFOAM: The Open Source CFD Toolbox
   \\    /   O peration     | Website:  https://openfoam.org
    \\  /    A nd           | Version:  7
     \\/     M anipulation  |
\*---------------------------------------------------------------------------*/
FoamFile
{
    version     2.0;
    format      ascii;
    class       volScalarField;
    location    "863992.485";
    object      NH4;
}
// * * * * * * * * * * * * * * * * * * * * * * * * * * * * * * * * * * * * * //

dimensions      [1 -3 0 0 0 0 0];

internalField   nonuniform List<scalar> 
200
(
3.06563e-06
3.0842e-06
3.09683e-06
3.10992e-06
3.12304e-06
3.13663e-06
3.15027e-06
3.16436e-06
3.17853e-06
3.19317e-06
3.20789e-06
3.22307e-06
3.23837e-06
3.25413e-06
3.27002e-06
3.28638e-06
3.30288e-06
3.31985e-06
3.33699e-06
3.35461e-06
3.37241e-06
3.39069e-06
3.40917e-06
3.42815e-06
3.44734e-06
3.46703e-06
3.48695e-06
3.50738e-06
3.52807e-06
3.54927e-06
3.57074e-06
3.59274e-06
3.61504e-06
3.63786e-06
3.661e-06
3.68469e-06
3.7087e-06
3.73328e-06
3.7582e-06
3.7837e-06
3.80957e-06
3.83602e-06
3.86287e-06
3.89032e-06
3.91818e-06
3.94665e-06
3.97556e-06
4.0051e-06
4.0351e-06
4.06574e-06
4.09687e-06
4.12866e-06
4.16095e-06
4.19393e-06
4.22744e-06
4.26166e-06
4.29643e-06
4.33192e-06
4.36799e-06
4.40481e-06
4.44224e-06
4.48044e-06
4.51927e-06
4.5589e-06
4.59919e-06
4.6403e-06
4.68211e-06
4.72476e-06
4.76815e-06
4.8124e-06
4.85742e-06
4.90334e-06
4.95006e-06
4.99771e-06
5.0462e-06
5.09565e-06
5.14598e-06
5.1973e-06
5.24954e-06
5.30282e-06
5.35706e-06
5.41237e-06
5.46869e-06
5.52613e-06
5.58461e-06
5.64427e-06
5.70502e-06
5.76699e-06
5.83011e-06
5.8945e-06
5.9601e-06
6.02702e-06
6.09522e-06
6.16479e-06
6.23571e-06
6.30808e-06
6.38185e-06
6.45714e-06
6.53392e-06
6.61229e-06
6.69224e-06
6.77385e-06
6.85713e-06
6.94217e-06
7.02896e-06
7.11762e-06
7.20814e-06
7.30063e-06
7.3951e-06
7.49165e-06
7.59031e-06
7.69118e-06
7.7943e-06
7.89977e-06
8.00763e-06
8.11802e-06
8.23096e-06
8.3466e-06
8.46498e-06
8.58626e-06
8.71048e-06
8.83781e-06
8.96833e-06
9.10219e-06
9.2395e-06
9.38042e-06
9.52509e-06
9.67368e-06
9.82634e-06
9.98328e-06
1.01447e-05
1.03107e-05
1.04816e-05
1.06577e-05
1.08391e-05
1.10262e-05
1.12191e-05
1.14184e-05
1.16242e-05
1.1837e-05
1.20571e-05
1.2285e-05
1.25211e-05
1.27659e-05
1.302e-05
1.3284e-05
1.35586e-05
1.38443e-05
1.41421e-05
1.44528e-05
1.47773e-05
1.51166e-05
1.54719e-05
1.58445e-05
1.62358e-05
1.66472e-05
1.70807e-05
1.75381e-05
1.80215e-05
1.85335e-05
1.90767e-05
1.96543e-05
2.02698e-05
2.09272e-05
2.16309e-05
2.23862e-05
2.31991e-05
2.40762e-05
2.50257e-05
2.60564e-05
2.71793e-05
2.84065e-05
2.97529e-05
3.12355e-05
3.28749e-05
3.46954e-05
3.67262e-05
3.90024e-05
4.15667e-05
4.44711e-05
4.77794e-05
5.15707e-05
5.59429e-05
6.10192e-05
6.69547e-05
7.39464e-05
8.22463e-05
9.21783e-05
0.00010416
0.000118734
0.000136603
0.000158675
0.000186113
0.000220387
0.00026328
0.000316787
0.000382484
0.000454713
0.000523438
0.000715516
)
;

boundaryField
{
    top
    {
        type            uniformInletOutlet;
        uniformInletValue constant 0.001;
        value           uniform 0.001;
    }
    left
    {
        type            empty;
    }
    right
    {
        type            empty;
    }
    front
    {
        type            empty;
    }
    back
    {
        type            empty;
    }
    bottom
    {
        type            zeroGradient;
    }
}


// ************************************************************************* //
