/*--------------------------------*- C++ -*----------------------------------*\
  =========                 |
  \\      /  F ield         | OpenFOAM: The Open Source CFD Toolbox
   \\    /   O peration     | Website:  https://openfoam.org
    \\  /    A nd           | Version:  7
     \\/     M anipulation  |
\*---------------------------------------------------------------------------*/
FoamFile
{
    version     2.0;
    format      ascii;
    class       volScalarField;
    location    "863992.485";
    object      NO3;
}
// * * * * * * * * * * * * * * * * * * * * * * * * * * * * * * * * * * * * * //

dimensions      [1 -3 0 0 0 0 0];

internalField   nonuniform List<scalar> 
200
(
0.00254243
0.00254234
0.0025423
0.00254224
0.00254218
0.00254213
0.00254207
0.00254202
0.00254196
0.0025419
0.00254185
0.00254179
0.00254173
0.00254167
0.00254162
0.00254156
0.0025415
0.00254144
0.00254138
0.00254132
0.00254126
0.00254121
0.00254115
0.00254109
0.00254103
0.00254096
0.0025409
0.00254084
0.00254078
0.00254072
0.00254066
0.00254059
0.00254053
0.00254047
0.0025404
0.00254034
0.00254028
0.00254021
0.00254015
0.00254008
0.00254002
0.00253995
0.00253988
0.00253982
0.00253975
0.00253968
0.00253961
0.00253954
0.00253948
0.00253941
0.00253934
0.00253927
0.00253919
0.00253912
0.00253905
0.00253898
0.0025389
0.00253883
0.00253876
0.00253868
0.00253861
0.00253853
0.00253845
0.00253837
0.0025383
0.00253822
0.00253814
0.00253806
0.00253798
0.00253789
0.00253781
0.00253773
0.00253764
0.00253756
0.00253747
0.00253739
0.0025373
0.00253721
0.00253712
0.00253703
0.00253694
0.00253684
0.00253675
0.00253666
0.00253656
0.00253646
0.00253636
0.00253626
0.00253616
0.00253606
0.00253596
0.00253585
0.00253575
0.00253564
0.00253553
0.00253542
0.0025353
0.00253519
0.00253507
0.00253496
0.00253484
0.00253472
0.00253459
0.00253447
0.00253434
0.00253421
0.00253408
0.00253394
0.00253381
0.00253367
0.00253353
0.00253338
0.00253323
0.00253308
0.00253293
0.00253278
0.00253262
0.00253245
0.00253229
0.00253212
0.00253195
0.00253177
0.00253159
0.0025314
0.00253121
0.00253102
0.00253082
0.00253061
0.00253041
0.00253019
0.00252997
0.00252974
0.00252951
0.00252927
0.00252902
0.00252877
0.00252851
0.00252824
0.00252796
0.00252768
0.00252738
0.00252707
0.00252676
0.00252643
0.00252609
0.00252574
0.00252538
0.002525
0.00252461
0.0025242
0.00252377
0.00252333
0.00252286
0.00252238
0.00252187
0.00252135
0.00252079
0.00252021
0.00251959
0.00251895
0.00251827
0.00251755
0.00251679
0.00251599
0.00251513
0.00251422
0.00251325
0.00251221
0.0025111
0.0025099
0.00250861
0.00250722
0.00250571
0.00250407
0.00250227
0.00250031
0.00249814
0.00249574
0.00249308
0.00249011
0.00248677
0.00248299
0.00247869
0.00247378
0.0024681
0.0024615
0.00245377
0.00244463
0.00243373
0.00242061
0.00240467
0.00238514
0.002361
0.0023309
0.00229309
0.002245
0.00218176
0.00208818
0.0019944
0.00205377
)
;

boundaryField
{
    top
    {
        type            uniformInletOutlet;
        uniformInletValue constant 0.002;
        value           uniform 0.002;
    }
    left
    {
        type            empty;
    }
    right
    {
        type            empty;
    }
    front
    {
        type            empty;
    }
    back
    {
        type            empty;
    }
    bottom
    {
        type            zeroGradient;
    }
}


// ************************************************************************* //
