/*--------------------------------*- C++ -*----------------------------------*\
  =========                 |
  \\      /  F ield         | OpenFOAM: The Open Source CFD Toolbox
   \\    /   O peration     | Website:  https://openfoam.org
    \\  /    A nd           | Version:  7
     \\/     M anipulation  |
\*---------------------------------------------------------------------------*/
FoamFile
{
    version     2.0;
    format      ascii;
    class       volScalarField;
    location    "863992.485";
    object      O2;
}
// * * * * * * * * * * * * * * * * * * * * * * * * * * * * * * * * * * * * * //

dimensions      [1 -3 0 0 0 0 0];

internalField   nonuniform List<scalar> 
200
(
0.025205
0.0251934
0.0251856
0.0251774
0.0251692
0.0251606
0.025152
0.0251431
0.0251342
0.0251249
0.0251156
0.025106
0.0250962
0.0250862
0.025076
0.0250656
0.025055
0.0250441
0.0250331
0.0250217
0.0250102
0.0249984
0.0249864
0.024974
0.0249616
0.0249487
0.0249357
0.0249223
0.0249088
0.0248948
0.0248807
0.0248662
0.0248515
0.0248364
0.024821
0.0248053
0.0247893
0.0247729
0.0247563
0.0247392
0.0247219
0.0247041
0.024686
0.0246675
0.0246487
0.0246294
0.0246098
0.0245898
0.0245694
0.0245484
0.0245272
0.0245054
0.0244833
0.0244606
0.0244376
0.024414
0.0243899
0.0243654
0.0243404
0.0243148
0.0242887
0.0242621
0.024235
0.0242072
0.024179
0.0241501
0.0241207
0.0240907
0.02406
0.0240287
0.0239968
0.0239643
0.0239311
0.0238971
0.0238626
0.0238272
0.0237912
0.0237545
0.023717
0.0236787
0.0236397
0.0235998
0.0235592
0.0235177
0.0234754
0.0234322
0.0233882
0.0233432
0.0232974
0.0232506
0.0232029
0.0231541
0.0231044
0.0230537
0.023002
0.0229492
0.0228953
0.0228404
0.0227843
0.0227271
0.0226687
0.0226092
0.0225484
0.0224864
0.0224232
0.0223586
0.0222928
0.0222256
0.0221571
0.0220871
0.0220158
0.021943
0.0218687
0.021793
0.0217157
0.0216368
0.0215563
0.0214742
0.0213905
0.021305
0.0212179
0.0211289
0.0210382
0.0209456
0.0208512
0.0207548
0.0206566
0.0205563
0.020454
0.0203496
0.0202431
0.0201345
0.0200237
0.0199107
0.0197954
0.0196777
0.0195577
0.0194353
0.0193104
0.019183
0.0190531
0.0189205
0.0187853
0.0186473
0.0185067
0.0183631
0.0182168
0.0180675
0.0179152
0.0177598
0.0176014
0.0174398
0.0172751
0.017107
0.0169356
0.0167608
0.0165826
0.0164009
0.0162156
0.0160266
0.015834
0.0156376
0.0154374
0.0152333
0.0150253
0.0148133
0.0145972
0.014377
0.0141527
0.0139243
0.0136915
0.0134545
0.0132133
0.0129677
0.0127179
0.0124637
0.0122053
0.0119427
0.011676
0.0114054
0.0111309
0.0108529
0.0105717
0.0102877
0.0100014
0.00971384
0.00942636
0.0091399
0.00885619
0.00857754
0.00830693
0.00804821
0.00780626
0.00758697
0.0073968
0.00724104
0.00711921
0.00701688
0.00687577
0.00827328
)
;

boundaryField
{
    top
    {
        type            uniformInletOutlet;
        uniformInletValue constant 0.009;
        value           uniform 0.009;
    }
    left
    {
        type            empty;
    }
    right
    {
        type            empty;
    }
    front
    {
        type            empty;
    }
    back
    {
        type            empty;
    }
    bottom
    {
        type            zeroGradient;
    }
}


// ************************************************************************* //
