/*--------------------------------*- C++ -*----------------------------------*\
  =========                 |
  \\      /  F ield         | OpenFOAM: The Open Source CFD Toolbox
   \\    /   O peration     | Website:  https://openfoam.org
    \\  /    A nd           | Version:  7
     \\/     M anipulation  |
\*---------------------------------------------------------------------------*/
FoamFile
{
    version     2.0;
    format      ascii;
    class       volScalarField;
    location    "863992.485";
    object      perm_satu;
}
// * * * * * * * * * * * * * * * * * * * * * * * * * * * * * * * * * * * * * //

dimensions      [0 0 0 0 0 0 0];

internalField   nonuniform List<scalar> 
200
(
0.0129869
0.0129867
0.0129864
0.0129861
0.0129856
0.0129852
0.0129847
0.0129842
0.0129837
0.0129832
0.0129826
0.0129821
0.0129816
0.012981
0.0129805
0.0129799
0.0129794
0.0129788
0.0129783
0.0129777
0.0129772
0.0129766
0.0129761
0.0129755
0.012975
0.0129745
0.0129739
0.0129734
0.0129728
0.0129723
0.0129717
0.0129712
0.0129706
0.0129701
0.0129695
0.012969
0.0129684
0.0129679
0.0129673
0.0129668
0.0129663
0.0129657
0.0129652
0.0129646
0.0129641
0.0129635
0.012963
0.0129624
0.0129619
0.0129614
0.0129608
0.0129603
0.0129597
0.0129592
0.0129587
0.0129581
0.0129576
0.0129571
0.0129565
0.012956
0.0129554
0.0129549
0.0129544
0.0129538
0.0129533
0.0129528
0.0129522
0.0129517
0.0129512
0.0129507
0.0129501
0.0129496
0.0129491
0.0129486
0.012948
0.0129475
0.012947
0.0129465
0.0129459
0.0129454
0.0129449
0.0129444
0.0129439
0.0129434
0.0129429
0.0129424
0.0129418
0.0129413
0.0129408
0.0129403
0.0129398
0.0129393
0.0129388
0.0129383
0.0129379
0.0129374
0.0129369
0.0129364
0.0129359
0.0129354
0.0129349
0.0129345
0.012934
0.0129335
0.0129331
0.0129326
0.0129322
0.0129317
0.0129312
0.0129308
0.0129304
0.0129299
0.0129295
0.0129291
0.0129286
0.0129282
0.0129278
0.0129274
0.012927
0.0129266
0.0129262
0.0129258
0.0129254
0.0129251
0.0129247
0.0129243
0.012924
0.0129236
0.0129233
0.012923
0.0129227
0.0129224
0.0129221
0.0129218
0.0129215
0.0129212
0.012921
0.0129207
0.0129205
0.0129203
0.0129201
0.0129199
0.0129198
0.0129196
0.0129195
0.0129194
0.0129193
0.0129192
0.0129192
0.0129192
0.0129192
0.0129192
0.0129192
0.0129193
0.0129194
0.0129196
0.0129198
0.01292
0.0129203
0.0129206
0.0129209
0.0129214
0.0129218
0.0129223
0.0129229
0.0129236
0.0129243
0.0129251
0.012926
0.0129269
0.012928
0.0129292
0.0129305
0.012932
0.0129336
0.0129353
0.0129373
0.0129395
0.0129419
0.0129446
0.0129476
0.0129509
0.0129547
0.0129589
0.0129638
0.0129693
0.0129756
0.012983
0.0129916
0.0130018
0.0130141
0.0130291
0.0130479
0.0130722
0.0131048
0.0131513
0.0132249
0.0133647
0.0137306
0.0152308
)
;

boundaryField
{
    top
    {
        type            calculated;
        value           uniform 0.0162603;
    }
    left
    {
        type            empty;
    }
    right
    {
        type            empty;
    }
    front
    {
        type            empty;
    }
    back
    {
        type            empty;
    }
    bottom
    {
        type            calculated;
        value           uniform 0.0129869;
    }
}


// ************************************************************************* //
