/*--------------------------------*- C++ -*----------------------------------*\
  =========                 |
  \\      /  F ield         | OpenFOAM: The Open Source CFD Toolbox
   \\    /   O peration     | Website:  https://openfoam.org
    \\  /    A nd           | Version:  7
     \\/     M anipulation  |
\*---------------------------------------------------------------------------*/
FoamFile
{
    version     2.0;
    format      ascii;
    class       surfaceScalarField;
    location    "863992.485";
    object      phi;
}
// * * * * * * * * * * * * * * * * * * * * * * * * * * * * * * * * * * * * * //

dimensions      [0 3 -1 0 0 0 0];

internalField   nonuniform List<scalar> 
199
(
-1.07335e-07
-1.0733e-07
-1.07325e-07
-1.0732e-07
-1.07316e-07
-1.07311e-07
-1.07307e-07
-1.07302e-07
-1.07297e-07
-1.07293e-07
-1.07288e-07
-1.07284e-07
-1.07279e-07
-1.07275e-07
-1.0727e-07
-1.07265e-07
-1.07261e-07
-1.07256e-07
-1.07252e-07
-1.07247e-07
-1.07243e-07
-1.07238e-07
-1.07234e-07
-1.07229e-07
-1.07224e-07
-1.0722e-07
-1.07215e-07
-1.07211e-07
-1.07206e-07
-1.07202e-07
-1.07197e-07
-1.07192e-07
-1.07188e-07
-1.07183e-07
-1.07179e-07
-1.07174e-07
-1.0717e-07
-1.07165e-07
-1.07161e-07
-1.07156e-07
-1.07151e-07
-1.07147e-07
-1.07142e-07
-1.07138e-07
-1.07133e-07
-1.07129e-07
-1.07124e-07
-1.0712e-07
-1.07115e-07
-1.0711e-07
-1.07106e-07
-1.07101e-07
-1.07097e-07
-1.07092e-07
-1.07088e-07
-1.07083e-07
-1.07079e-07
-1.07074e-07
-1.0707e-07
-1.07065e-07
-1.0706e-07
-1.07056e-07
-1.07051e-07
-1.07047e-07
-1.07042e-07
-1.07038e-07
-1.07033e-07
-1.07029e-07
-1.07024e-07
-1.0702e-07
-1.07015e-07
-1.07011e-07
-1.07006e-07
-1.07001e-07
-1.06997e-07
-1.06992e-07
-1.06988e-07
-1.06983e-07
-1.06979e-07
-1.06974e-07
-1.0697e-07
-1.06965e-07
-1.06961e-07
-1.06956e-07
-1.06952e-07
-1.06947e-07
-1.06943e-07
-1.06938e-07
-1.06933e-07
-1.06929e-07
-1.06924e-07
-1.0692e-07
-1.06915e-07
-1.06911e-07
-1.06906e-07
-1.06902e-07
-1.06897e-07
-1.06893e-07
-1.06888e-07
-1.06884e-07
-1.06879e-07
-1.06875e-07
-1.0687e-07
-1.06866e-07
-1.06861e-07
-1.06857e-07
-1.06852e-07
-1.06847e-07
-1.06843e-07
-1.06838e-07
-1.06834e-07
-1.06829e-07
-1.06825e-07
-1.0682e-07
-1.06816e-07
-1.06811e-07
-1.06807e-07
-1.06802e-07
-1.06798e-07
-1.06793e-07
-1.06789e-07
-1.06784e-07
-1.0678e-07
-1.06775e-07
-1.06771e-07
-1.06766e-07
-1.06762e-07
-1.06757e-07
-1.06753e-07
-1.06748e-07
-1.06744e-07
-1.06739e-07
-1.06735e-07
-1.0673e-07
-1.06726e-07
-1.06721e-07
-1.06717e-07
-1.06712e-07
-1.06708e-07
-1.06703e-07
-1.06699e-07
-1.06694e-07
-1.0669e-07
-1.06685e-07
-1.06681e-07
-1.06676e-07
-1.06672e-07
-1.06667e-07
-1.06663e-07
-1.06658e-07
-1.06654e-07
-1.06649e-07
-1.06645e-07
-1.0664e-07
-1.06636e-07
-1.06631e-07
-1.06627e-07
-1.06622e-07
-1.06618e-07
-1.06613e-07
-1.06609e-07
-1.06604e-07
-1.066e-07
-1.06595e-07
-1.06591e-07
-1.06586e-07
-1.06582e-07
-1.06577e-07
-1.06573e-07
-1.06568e-07
-1.06564e-07
-1.06559e-07
-1.06555e-07
-1.0655e-07
-1.06546e-07
-1.06541e-07
-1.06537e-07
-1.06532e-07
-1.06528e-07
-1.06524e-07
-1.06519e-07
-1.06515e-07
-1.0651e-07
-1.06506e-07
-1.06502e-07
-1.06497e-07
-1.06493e-07
-1.06489e-07
-1.06486e-07
-1.06483e-07
-1.0648e-07
-1.0648e-07
-1.06482e-07
-1.06494e-07
-1.06533e-07
-1.06679e-07
-1.07333e-07
-1.1067e-07
-1.02796e-07
)
;

boundaryField
{
    top
    {
        type            calculated;
        value           uniform -1.00337e-07;
    }
    left
    {
        type            empty;
        value           nonuniform 0();
    }
    right
    {
        type            empty;
        value           nonuniform 0();
    }
    front
    {
        type            empty;
        value           nonuniform 0();
    }
    back
    {
        type            empty;
        value           nonuniform 0();
    }
    bottom
    {
        type            calculated;
        value           uniform 1.07339e-07;
    }
}


// ************************************************************************* //
