/*--------------------------------*- C++ -*----------------------------------*\
  =========                 |
  \\      /  F ield         | OpenFOAM: The Open Source CFD Toolbox
   \\    /   O peration     | Website:  https://openfoam.org
    \\  /    A nd           | Version:  7
     \\/     M anipulation  |
\*---------------------------------------------------------------------------*/
FoamFile
{
    version     2.0;
    format      ascii;
    class       volScalarField;
    location    "863992.485";
    object      porosity;
}
// * * * * * * * * * * * * * * * * * * * * * * * * * * * * * * * * * * * * * //

dimensions      [0 0 0 0 0 0 0];

internalField   nonuniform List<scalar> 
200
(
0.357971
0.357971
0.357971
0.357971
0.357971
0.357971
0.357971
0.357971
0.357971
0.357971
0.357971
0.357971
0.357971
0.357971
0.357971
0.357971
0.357971
0.357971
0.35797
0.35797
0.35797
0.35797
0.35797
0.35797
0.35797
0.35797
0.35797
0.35797
0.35797
0.35797
0.35797
0.35797
0.35797
0.35797
0.35797
0.35797
0.35797
0.35797
0.35797
0.35797
0.35797
0.35797
0.35797
0.35797
0.35797
0.35797
0.357969
0.357969
0.357969
0.357969
0.357969
0.357969
0.357969
0.357969
0.357969
0.357969
0.357969
0.357969
0.357968
0.357968
0.357968
0.357968
0.357968
0.357968
0.357968
0.357968
0.357968
0.357967
0.357967
0.357967
0.357967
0.357967
0.357967
0.357966
0.357966
0.357966
0.357966
0.357966
0.357965
0.357965
0.357965
0.357965
0.357964
0.357964
0.357964
0.357964
0.357963
0.357963
0.357963
0.357962
0.357962
0.357961
0.357961
0.357961
0.35796
0.35796
0.357959
0.357959
0.357958
0.357958
0.357957
0.357957
0.357956
0.357956
0.357955
0.357954
0.357954
0.357953
0.357952
0.357952
0.357951
0.35795
0.357949
0.357948
0.357947
0.357947
0.357946
0.357945
0.357943
0.357942
0.357941
0.35794
0.357939
0.357937
0.357936
0.357935
0.357933
0.357932
0.35793
0.357929
0.357927
0.357925
0.357923
0.357921
0.357919
0.357917
0.357915
0.357913
0.35791
0.357908
0.357905
0.357902
0.357899
0.357896
0.357893
0.35789
0.357886
0.357883
0.357879
0.357875
0.357871
0.357867
0.357862
0.357857
0.357852
0.357847
0.357841
0.357835
0.357829
0.357822
0.357815
0.357808
0.3578
0.357792
0.357783
0.357774
0.357764
0.357753
0.357742
0.35773
0.357717
0.357703
0.357688
0.357672
0.357654
0.357635
0.357615
0.357592
0.357568
0.35754
0.35751
0.357477
0.357439
0.357397
0.357349
0.357294
0.35723
0.357155
0.357067
0.356961
0.35683
0.356665
0.356452
0.356162
0.355748
0.3551
0.353933
0.351266
0.342876
0.309286
)
;

boundaryField
{
    top
    {
        type            zeroGradient;
    }
    left
    {
        type            empty;
    }
    right
    {
        type            empty;
    }
    front
    {
        type            empty;
    }
    back
    {
        type            empty;
    }
    bottom
    {
        type            zeroGradient;
    }
}


// ************************************************************************* //
