/*--------------------------------*- C++ -*----------------------------------*\
  =========                 |
  \\      /  F ield         | OpenFOAM: The Open Source CFD Toolbox
   \\    /   O peration     | Website:  https://openfoam.org
    \\  /    A nd           | Version:  7
     \\/     M anipulation  |
\*---------------------------------------------------------------------------*/
FoamFile
{
    version     2.0;
    format      ascii;
    class       volScalarField;
    location    "863992.485";
    object      rDN;
}
// * * * * * * * * * * * * * * * * * * * * * * * * * * * * * * * * * * * * * //

dimensions      [0 0 -1 0 0 0 0];

internalField   nonuniform List<scalar> 
200
(
4.59851e-07
4.60515e-07
4.6096e-07
4.61413e-07
4.61866e-07
4.62326e-07
4.62787e-07
4.63254e-07
4.63723e-07
4.64198e-07
4.64675e-07
4.65159e-07
4.65645e-07
4.66137e-07
4.66632e-07
4.67133e-07
4.67637e-07
4.68148e-07
4.68662e-07
4.69182e-07
4.69706e-07
4.70237e-07
4.70771e-07
4.71313e-07
4.71858e-07
4.72411e-07
4.72968e-07
4.73532e-07
4.74101e-07
4.74677e-07
4.75258e-07
4.75847e-07
4.76442e-07
4.77044e-07
4.77651e-07
4.78267e-07
4.78889e-07
4.79519e-07
4.80156e-07
4.80801e-07
4.81453e-07
4.82113e-07
4.82781e-07
4.83458e-07
4.84143e-07
4.84837e-07
4.85539e-07
4.86251e-07
4.86971e-07
4.87702e-07
4.88441e-07
4.89191e-07
4.89951e-07
4.90721e-07
4.91501e-07
4.92293e-07
4.93095e-07
4.93909e-07
4.94734e-07
4.95571e-07
4.96419e-07
4.97281e-07
4.98155e-07
4.99042e-07
4.99942e-07
5.00856e-07
5.01783e-07
5.02725e-07
5.03681e-07
5.04653e-07
5.05638e-07
5.06641e-07
5.07658e-07
5.08693e-07
5.09744e-07
5.10812e-07
5.11898e-07
5.13002e-07
5.14124e-07
5.15266e-07
5.16426e-07
5.17608e-07
5.18808e-07
5.20031e-07
5.21274e-07
5.2254e-07
5.23828e-07
5.2514e-07
5.26475e-07
5.27835e-07
5.29219e-07
5.3063e-07
5.32067e-07
5.33532e-07
5.35023e-07
5.36545e-07
5.38095e-07
5.39676e-07
5.41287e-07
5.42931e-07
5.44608e-07
5.46318e-07
5.48064e-07
5.49845e-07
5.51663e-07
5.53519e-07
5.55414e-07
5.5735e-07
5.59327e-07
5.61347e-07
5.63411e-07
5.65521e-07
5.67677e-07
5.69881e-07
5.72136e-07
5.74442e-07
5.76801e-07
5.79215e-07
5.81685e-07
5.84215e-07
5.86804e-07
5.89457e-07
5.92174e-07
5.94958e-07
5.97811e-07
6.00737e-07
6.03736e-07
6.06813e-07
6.0997e-07
6.13209e-07
6.16534e-07
6.19949e-07
6.23456e-07
6.2706e-07
6.30763e-07
6.3457e-07
6.38486e-07
6.42514e-07
6.46659e-07
6.50927e-07
6.55321e-07
6.59849e-07
6.64515e-07
6.69327e-07
6.74289e-07
6.79411e-07
6.84698e-07
6.90161e-07
6.95811e-07
7.01637e-07
7.07677e-07
7.13914e-07
7.20386e-07
7.27077e-07
7.34028e-07
7.41222e-07
7.48705e-07
7.5646e-07
7.64537e-07
7.72921e-07
7.81664e-07
7.90755e-07
8.00248e-07
8.10139e-07
8.20483e-07
8.31283e-07
8.42598e-07
8.54439e-07
8.66869e-07
8.79912e-07
8.93631e-07
9.08075e-07
9.23304e-07
9.39386e-07
9.56396e-07
9.7442e-07
9.93551e-07
1.01389e-06
1.03554e-06
1.05866e-06
1.08353e-06
1.11016e-06
1.13895e-06
1.17001e-06
1.20381e-06
1.24058e-06
1.28084e-06
1.32511e-06
1.37416e-06
1.42884e-06
1.4904e-06
1.56048e-06
1.64164e-06
1.73809e-06
1.8575e-06
2.01575e-06
2.24899e-06
2.64763e-06
3.45891e-06
4.27837e-06
)
;

boundaryField
{
    top
    {
        type            calculated;
        value           uniform 5.12117e-06;
    }
    left
    {
        type            empty;
    }
    right
    {
        type            empty;
    }
    front
    {
        type            empty;
    }
    back
    {
        type            empty;
    }
    bottom
    {
        type            calculated;
        value           uniform 4.59851e-07;
    }
}


// ************************************************************************* //
