/*--------------------------------*- C++ -*----------------------------------*\
  =========                 |
  \\      /  F ield         | OpenFOAM: The Open Source CFD Toolbox
   \\    /   O peration     | Website:  https://openfoam.org
    \\  /    A nd           | Version:  7
     \\/     M anipulation  |
\*---------------------------------------------------------------------------*/
FoamFile
{
    version     2.0;
    format      ascii;
    class       volScalarField;
    location    "863992.485";
    object      rH;
}
// * * * * * * * * * * * * * * * * * * * * * * * * * * * * * * * * * * * * * //

dimensions      [0 0 -1 0 0 0 0];

internalField   nonuniform List<scalar> 
200
(
4.75616e-08
4.78969e-08
4.81249e-08
4.83599e-08
4.85958e-08
4.88389e-08
4.90832e-08
4.93346e-08
4.95876e-08
4.98478e-08
5.01097e-08
5.0379e-08
5.06503e-08
5.09289e-08
5.12099e-08
5.14983e-08
5.17892e-08
5.20877e-08
5.23891e-08
5.26981e-08
5.30102e-08
5.33301e-08
5.36533e-08
5.39845e-08
5.43193e-08
5.46622e-08
5.5009e-08
5.53639e-08
5.57232e-08
5.60907e-08
5.64628e-08
5.68433e-08
5.72287e-08
5.76228e-08
5.8022e-08
5.843e-08
5.88435e-08
5.9266e-08
5.96944e-08
6.01319e-08
6.05755e-08
6.10286e-08
6.14882e-08
6.19573e-08
6.24333e-08
6.29192e-08
6.34122e-08
6.39153e-08
6.4426e-08
6.49471e-08
6.5476e-08
6.60156e-08
6.65634e-08
6.71222e-08
6.76896e-08
6.82682e-08
6.88559e-08
6.94551e-08
7.00638e-08
7.06843e-08
7.13147e-08
7.19573e-08
7.26102e-08
7.32757e-08
7.39519e-08
7.4641e-08
7.53413e-08
7.60549e-08
7.67802e-08
7.75193e-08
7.82705e-08
7.90358e-08
7.98138e-08
8.06064e-08
8.14123e-08
8.22332e-08
8.30678e-08
8.3918e-08
8.47825e-08
8.56631e-08
8.65587e-08
8.74708e-08
8.83985e-08
8.93434e-08
9.03046e-08
9.12835e-08
9.22793e-08
9.32936e-08
9.43255e-08
9.53766e-08
9.6446e-08
9.75354e-08
9.86439e-08
9.97731e-08
1.00922e-07
1.02093e-07
1.03285e-07
1.04499e-07
1.05735e-07
1.06994e-07
1.08277e-07
1.09583e-07
1.10914e-07
1.12271e-07
1.13652e-07
1.1506e-07
1.16495e-07
1.17958e-07
1.19449e-07
1.20969e-07
1.22519e-07
1.24099e-07
1.25711e-07
1.27355e-07
1.29033e-07
1.30744e-07
1.32491e-07
1.34274e-07
1.36094e-07
1.37952e-07
1.3985e-07
1.41789e-07
1.4377e-07
1.45795e-07
1.47864e-07
1.49981e-07
1.52145e-07
1.5436e-07
1.56626e-07
1.58947e-07
1.61323e-07
1.63757e-07
1.66251e-07
1.68809e-07
1.71432e-07
1.74124e-07
1.76887e-07
1.79725e-07
1.82641e-07
1.85639e-07
1.88723e-07
1.91898e-07
1.95167e-07
1.98537e-07
2.02011e-07
2.05598e-07
2.09302e-07
2.13132e-07
2.17097e-07
2.21196e-07
2.2545e-07
2.29858e-07
2.34442e-07
2.39202e-07
2.44162e-07
2.49325e-07
2.54719e-07
2.60348e-07
2.66245e-07
2.72417e-07
2.789e-07
2.85709e-07
2.92884e-07
3.00444e-07
3.08439e-07
3.16897e-07
3.25873e-07
3.35407e-07
3.45568e-07
3.56409e-07
3.68008e-07
3.80447e-07
3.93815e-07
4.08217e-07
4.23773e-07
4.40615e-07
4.58894e-07
4.78781e-07
5.00456e-07
5.24148e-07
5.5019e-07
5.78749e-07
6.10274e-07
6.45029e-07
6.8355e-07
7.26233e-07
7.73741e-07
8.26674e-07
8.8592e-07
9.52486e-07
1.02785e-06
1.11411e-06
1.21467e-06
1.33542e-06
1.48737e-06
1.69336e-06
2.00662e-06
2.57271e-06
3.91277e-06
1.02208e-05
)
;

boundaryField
{
    top
    {
        type            calculated;
        value           uniform 2.83015e-05;
    }
    left
    {
        type            empty;
    }
    right
    {
        type            empty;
    }
    front
    {
        type            empty;
    }
    back
    {
        type            empty;
    }
    bottom
    {
        type            calculated;
        value           uniform 4.75616e-08;
    }
}


// ************************************************************************* //
