/*--------------------------------*- C++ -*----------------------------------*\
  =========                 |
  \\      /  F ield         | OpenFOAM: The Open Source CFD Toolbox
   \\    /   O peration     | Website:  https://openfoam.org
    \\  /    A nd           | Version:  7
     \\/     M anipulation  |
\*---------------------------------------------------------------------------*/
FoamFile
{
    version     2.0;
    format      ascii;
    class       volScalarField;
    location    "863992.485";
    object      rN;
}
// * * * * * * * * * * * * * * * * * * * * * * * * * * * * * * * * * * * * * //

dimensions      [0 0 -1 0 0 0 0];

internalField   nonuniform List<scalar> 
200
(
3.8723e-07
3.89558e-07
3.91141e-07
3.92781e-07
3.94426e-07
3.96129e-07
3.97838e-07
3.99604e-07
4.0138e-07
4.03213e-07
4.05057e-07
4.0696e-07
4.08875e-07
4.10849e-07
4.12839e-07
4.14887e-07
4.16954e-07
4.19079e-07
4.21225e-07
4.2343e-07
4.25658e-07
4.27946e-07
4.30259e-07
4.32633e-07
4.35034e-07
4.37498e-07
4.3999e-07
4.42546e-07
4.45133e-07
4.47784e-07
4.50469e-07
4.5322e-07
4.56006e-07
4.5886e-07
4.61752e-07
4.64712e-07
4.67712e-07
4.70783e-07
4.73896e-07
4.77081e-07
4.80311e-07
4.83615e-07
4.86966e-07
4.90392e-07
4.93869e-07
4.97422e-07
5.0103e-07
5.04715e-07
5.08456e-07
5.12278e-07
5.16159e-07
5.20123e-07
5.24149e-07
5.28259e-07
5.32434e-07
5.36696e-07
5.41027e-07
5.45447e-07
5.49939e-07
5.54522e-07
5.59181e-07
5.63934e-07
5.68765e-07
5.73694e-07
5.78705e-07
5.83816e-07
5.89013e-07
5.94313e-07
5.99704e-07
6.052e-07
6.10791e-07
6.16492e-07
6.2229e-07
6.28203e-07
6.34218e-07
6.40351e-07
6.46591e-07
6.52952e-07
6.59426e-07
6.66026e-07
6.72743e-07
6.7959e-07
6.86561e-07
6.93667e-07
7.00901e-07
7.08276e-07
7.15785e-07
7.23442e-07
7.31239e-07
7.39188e-07
7.47285e-07
7.55542e-07
7.63953e-07
7.7253e-07
7.8127e-07
7.90184e-07
7.99268e-07
8.08535e-07
8.17981e-07
8.27618e-07
8.37444e-07
8.47472e-07
8.57698e-07
8.68136e-07
8.78784e-07
8.89655e-07
9.00749e-07
9.12078e-07
9.23643e-07
9.35457e-07
9.47522e-07
9.5985e-07
9.72445e-07
9.85321e-07
9.9848e-07
1.01194e-06
1.0257e-06
1.03978e-06
1.05418e-06
1.06893e-06
1.08402e-06
1.09948e-06
1.11532e-06
1.13155e-06
1.14818e-06
1.16524e-06
1.18274e-06
1.20069e-06
1.21912e-06
1.23806e-06
1.25751e-06
1.2775e-06
1.29806e-06
1.31922e-06
1.34099e-06
1.36343e-06
1.38654e-06
1.41038e-06
1.43498e-06
1.46038e-06
1.48663e-06
1.51377e-06
1.54185e-06
1.57093e-06
1.60107e-06
1.63234e-06
1.66481e-06
1.69856e-06
1.73367e-06
1.77023e-06
1.80836e-06
1.84817e-06
1.88977e-06
1.93332e-06
1.97895e-06
2.02684e-06
2.07718e-06
2.13018e-06
2.18607e-06
2.2451e-06
2.30758e-06
2.37383e-06
2.44422e-06
2.51917e-06
2.59914e-06
2.68468e-06
2.77639e-06
2.87497e-06
2.98123e-06
3.09606e-06
3.22054e-06
3.35589e-06
3.50352e-06
3.66509e-06
3.84252e-06
4.03809e-06
4.25446e-06
4.49478e-06
4.7628e-06
5.06294e-06
5.40051e-06
5.78184e-06
6.21451e-06
6.70761e-06
7.272e-06
7.92066e-06
8.66898e-06
9.53502e-06
1.05396e-05
1.1706e-05
1.30594e-05
1.46249e-05
1.64243e-05
1.84703e-05
2.07581e-05
2.32495e-05
2.58335e-05
2.8063e-05
2.9089e-05
2.91834e-05
)
;

boundaryField
{
    top
    {
        type            calculated;
        value           uniform 3.3204e-05;
    }
    left
    {
        type            empty;
    }
    right
    {
        type            empty;
    }
    front
    {
        type            empty;
    }
    back
    {
        type            empty;
    }
    bottom
    {
        type            calculated;
        value           uniform 3.8723e-07;
    }
}


// ************************************************************************* //
