/*--------------------------------*- C++ -*----------------------------------*\
  =========                 |
  \\      /  F ield         | OpenFOAM: The Open Source CFD Toolbox
   \\    /   O peration     | Website:  https://openfoam.org
    \\  /    A nd           | Version:  7
     \\/     M anipulation  |
\*---------------------------------------------------------------------------*/
FoamFile
{
    version     2.0;
    format      ascii;
    class       volScalarField;
    location    "863992.485";
    object      tracer;
}
// * * * * * * * * * * * * * * * * * * * * * * * * * * * * * * * * * * * * * //

dimensions      [1 -3 0 0 0 0 0];

internalField   nonuniform List<scalar> 
200
(
0.000950501
0.000950437
0.0009504
0.000950357
0.000950316
0.000950274
0.000950233
0.000950192
0.000950151
0.00095011
0.000950068
0.000950027
0.000949986
0.000949945
0.000949904
0.000949863
0.000949822
0.000949781
0.00094974
0.000949699
0.000949658
0.000949617
0.000949576
0.000949535
0.000949494
0.000949453
0.000949413
0.000949372
0.000949331
0.000949291
0.00094925
0.000949209
0.000949169
0.000949128
0.000949088
0.000949047
0.000949007
0.000948966
0.000948926
0.000948885
0.000948845
0.000948805
0.000948765
0.000948724
0.000948684
0.000948644
0.000948604
0.000948564
0.000948524
0.000948483
0.000948443
0.000948403
0.000948363
0.000948323
0.000948284
0.000948244
0.000948204
0.000948164
0.000948124
0.000948084
0.000948045
0.000948005
0.000947965
0.000947926
0.000947886
0.000947846
0.000947807
0.000947767
0.000947728
0.000947688
0.000947649
0.00094761
0.00094757
0.000947531
0.000947492
0.000947452
0.000947413
0.000947374
0.000947335
0.000947295
0.000947256
0.000947217
0.000947178
0.000947139
0.0009471
0.000947061
0.000947022
0.000946983
0.000946944
0.000946905
0.000946867
0.000946828
0.000946789
0.00094675
0.000946712
0.000946673
0.000946634
0.000946596
0.000946557
0.000946519
0.00094648
0.000946442
0.000946403
0.000946365
0.000946326
0.000946288
0.000946249
0.000946211
0.000946173
0.000946135
0.000946096
0.000946058
0.00094602
0.000945982
0.000945944
0.000945906
0.000945868
0.00094583
0.000945792
0.000945754
0.000945716
0.000945678
0.00094564
0.000945602
0.000945564
0.000945527
0.000945489
0.000945451
0.000945413
0.000945376
0.000945338
0.000945301
0.000945263
0.000945225
0.000945188
0.00094515
0.000945113
0.000945076
0.000945038
0.000945001
0.000944963
0.000944926
0.000944889
0.000944852
0.000944814
0.000944777
0.00094474
0.000944703
0.000944666
0.000944629
0.000944592
0.000944555
0.000944518
0.000944481
0.000944444
0.000944407
0.00094437
0.000944333
0.000944297
0.00094426
0.000944223
0.000944186
0.00094415
0.000944113
0.000944076
0.00094404
0.000944003
0.000943967
0.00094393
0.000943893
0.000943857
0.000943821
0.000943784
0.000943748
0.000943711
0.000943675
0.000943638
0.000943602
0.000943565
0.000943529
0.000943492
0.000943455
0.000943418
0.000943381
0.000943344
0.000943306
0.000943267
0.000943228
0.000943186
0.000943141
0.000943092
0.000943032
0.000942953
0.000942831
0.000942594
0.000941989
0.000939873
0.000930374
0.000906842
0.000984264
)
;

boundaryField
{
    top
    {
        type            uniformInletOutlet;
        uniformInletValue constant 0.001;
        value           uniform 0.001;
    }
    left
    {
        type            empty;
    }
    right
    {
        type            empty;
    }
    front
    {
        type            empty;
    }
    back
    {
        type            empty;
    }
    bottom
    {
        type            zeroGradient;
    }
}


// ************************************************************************* //
