/*--------------------------------*- C++ -*----------------------------------*\
  =========                 |
  \\      /  F ield         | OpenFOAM: The Open Source CFD Toolbox
   \\    /   O peration     | Website:  https://openfoam.org
    \\  /    A nd           | Version:  7
     \\/     M anipulation  |
\*---------------------------------------------------------------------------*/
FoamFile
{
    version     2.0;
    format      ascii;
    class       volVectorField;
    location    "0.000";
    object      U;
}
// * * * * * * * * * * * * * * * * * * * * * * * * * * * * * * * * * * * * * //

dimensions      [0 1 -1 0 0 0 0];

internalField   nonuniform List<vector> 
200
(
(7.44806e-23 7.44806e-23 -2.68345e-06)
(7.44769e-23 7.44769e-23 -2.68331e-06)
(-7.44707e-23 -0 -2.68309e-06)
(-3.88598e-37 -7.4472e-23 -2.68314e-06)
(7.44683e-23 -7.44683e-23 -2.683e-06)
(7.44596e-23 7.44596e-23 -2.68269e-06)
(-1.98404e-37 7.44609e-23 -2.68274e-06)
(-7.44584e-23 -0 -2.68265e-06)
(7.44559e-23 -0 -2.68256e-06)
(-7.44535e-23 -7.44535e-23 -2.68247e-06)
(-1.48895e-22 -7.44473e-23 -2.68225e-06)
(1.48885e-22 1.48885e-22 -2.68207e-06)
(1.48887e-22 1.48887e-22 -2.68211e-06)
(-2.23323e-22 -2.23323e-22 -2.68203e-06)
(-1.54848e-56 -1.54848e-56 -2.6818e-06)
(2.2329e-22 1.4886e-22 -2.68163e-06)
(-1.48863e-22 -1.48863e-22 -2.68167e-06)
(1.65257e-38 8.26285e-39 -2.68145e-06)
(7.44193e-23 7.44193e-23 -2.68124e-06)
(1.23935e-36 1.48841e-22 -2.68128e-06)
(7.44181e-23 -1.65241e-38 -2.6812e-06)
(-0 -1.48824e-22 -2.68097e-06)
(-2.23221e-22 -7.4407e-23 -2.6808e-06)
(-4.92354e-36 7.44083e-23 -2.68084e-06)
(2.97608e-22 1.48804e-22 -2.68062e-06)
(-1.48794e-22 -7.43972e-23 -2.68044e-06)
(-2.23195e-22 -1.48797e-22 -2.68049e-06)
(2.23188e-22 7.4396e-23 -2.6804e-06)
(-4.95535e-36 7.43898e-23 -2.68017e-06)
(-2.23155e-22 -1.4877e-22 -2.68e-06)
(-0 -8.25852e-39 -2.68004e-06)
(-0 -8.34083e-37 -2.67995e-06)
(1.48755e-22 -8.34013e-37 -2.67973e-06)
(7.43725e-23 7.43725e-23 -2.67955e-06)
(-8.33972e-37 7.43738e-23 -2.6796e-06)
(-7.43676e-23 -8.25646e-39 -2.67938e-06)
(-1.48725e-22 -1.48725e-22 -2.6792e-06)
(2.23092e-22 7.4364e-23 -2.67924e-06)
(1.48723e-22 7.43615e-23 -2.67916e-06)
(-8.2551e-37 -8.2551e-37 -2.67893e-06)
(-1.48701e-22 -2.29144e-57 -2.67876e-06)
(-1.48703e-22 -7.43517e-23 -2.6788e-06)
(-8.33696e-37 -0 -2.67871e-06)
(-0 -0 -2.67849e-06)
(1.48676e-22 -0 -2.67831e-06)
(-8.25333e-37 -7.43393e-23 -2.67836e-06)
(-8.33549e-37 -8.33549e-37 -2.67824e-06)
(-7.43298e-23 -8.25227e-39 -2.67801e-06)
(-3.31719e-36 -1.6586e-36 -2.67784e-06)
(-1.66688e-36 -7.43262e-23 -2.67788e-06)
(-1.4864e-22 -7.432e-23 -2.67766e-06)
(1.4863e-22 2.22945e-22 -2.67748e-06)
(4.10396e-67 -7.43163e-23 -2.67753e-06)
(-3.3167e-36 -4.9503e-36 -2.67744e-06)
(3.29993e-36 7.43077e-23 -2.67722e-06)
(-1.48606e-22 -7.43028e-23 -2.67704e-06)
(1.48608e-22 7.4304e-23 -2.67709e-06)
(1.48603e-22 -0 -2.677e-06)
(-0 7.42946e-23 -2.67674e-06)
(-0 7.42896e-23 -2.67657e-06)
(-0 -7.42909e-23 -2.67661e-06)
(-0 -7.42884e-23 -2.67652e-06)
(-0 7.42823e-23 -2.6763e-06)
(-1.48555e-22 -7.42773e-23 -2.67612e-06)
(-1.48557e-22 -2.22836e-22 -2.67617e-06)
(1.48552e-22 7.42761e-23 -2.67608e-06)
(3.28176e-36 7.427e-23 -2.67586e-06)
(-1.48528e-22 5.72196e-58 -2.67565e-06)
(-0 -7.42654e-23 -2.67569e-06)
(-7.4263e-23 -7.4263e-23 -2.67561e-06)
(-3.28959e-36 7.42605e-23 -2.67552e-06)
(7.42544e-23 -0 -2.6753e-06)
(-0 -7.42494e-23 -2.67512e-06)
(-7.42498e-23 8.55011e-69 -2.67513e-06)
(7.42474e-23 7.42474e-23 -2.67504e-06)
(2.22724e-22 1.48482e-22 -2.67482e-06)
(-7.42363e-23 -6.59351e-36 -2.67464e-06)
(-1.48475e-22 -7.42375e-23 -2.67469e-06)
(-0 -1.64009e-36 -2.67457e-06)
(-0 -7.42318e-23 -2.67448e-06)
(-0 -0 -2.67426e-06)
(7.42207e-23 7.42207e-23 -2.67408e-06)
(1.48442e-22 1.48442e-22 -2.6741e-06)
(6.60018e-36 6.60018e-36 -2.67401e-06)
(-1.48432e-22 -1.48432e-22 -2.67392e-06)
(-7.421e-23 -7.421e-23 -2.6737e-06)
(1.48408e-22 7.42042e-23 -2.67349e-06)
(3.32834e-36 1.66417e-36 -2.67353e-06)
(-7.4203e-23 -1.63116e-36 -2.67345e-06)
(1.48399e-22 7.41997e-23 -2.67333e-06)
(-7.41972e-23 -7.41972e-23 -2.67324e-06)
(-9.85118e-36 7.41902e-23 -2.67298e-06)
(3.29449e-36 7.41853e-23 -2.67281e-06)
(-1.48373e-22 -1.48373e-22 -2.67285e-06)
(-0 -4.93336e-36 -2.67273e-06)
(-0 8.23572e-39 -2.67264e-06)
(1.48355e-22 -3.30238e-36 -2.67253e-06)
(-3.29403e-36 -7.4175e-23 -2.67244e-06)
(-1.48336e-22 -7.4168e-23 -2.67218e-06)
(-0 7.41631e-23 -2.67201e-06)
(-7.41635e-23 -0 -2.67202e-06)
(1.48322e-22 1.48322e-22 -2.67193e-06)
(7.41577e-23 1.31731e-35 -2.67181e-06)
(-1.48311e-22 -1.48311e-22 -2.67172e-06)
(-7.41519e-23 -0 -2.6716e-06)
(7.41486e-23 7.41486e-23 -2.67149e-06)
(7.41462e-23 8.23188e-39 -2.6714e-06)
(-7.41428e-23 -7.41428e-23 -2.67128e-06)
(-7.41395e-23 -0 -2.67116e-06)
(1.48274e-22 7.41371e-23 -2.67107e-06)
(3.2922e-38 8.2305e-39 -2.67095e-06)
(-1.48261e-22 -7.41304e-23 -2.67083e-06)
(1.48254e-22 7.41271e-23 -2.67071e-06)
(-7.41238e-23 -3.28353e-36 -2.67059e-06)
(-7.41205e-23 -7.41205e-23 -2.67047e-06)
(3.28327e-36 -0 -2.67038e-06)
(7.41147e-23 7.41147e-23 -2.67026e-06)
(6.33673e-68 1.26735e-67 -2.67015e-06)
(6.56559e-36 3.2828e-36 -2.66999e-06)
(1.64544e-38 8.22719e-39 -2.66988e-06)
(-6.565e-36 -3.2825e-36 -2.66976e-06)
(-6.56471e-36 -3.28235e-36 -2.66964e-06)
(-7.4094e-23 -7.4094e-23 -2.66952e-06)
(7.40898e-23 -0 -2.66937e-06)
(-0 -0 -2.66938e-06)
(-7.40893e-23 -0 -2.66935e-06)
(7.40815e-23 7.40815e-23 -2.66907e-06)
(7.40782e-23 8.22433e-39 -2.66895e-06)
(-6.57087e-36 -6.57087e-36 -2.6688e-06)
(-3.28956e-36 -3.28956e-36 -2.66881e-06)
(-7.40727e-23 -7.40727e-23 -2.66875e-06)
(-7.40648e-23 -0 -2.66846e-06)
(7.40643e-23 7.40643e-23 -2.66845e-06)
(7.40626e-23 -3.28904e-36 -2.66839e-06)
(-7.40547e-23 -7.91802e-69 -2.6681e-06)
(-7.40542e-23 -3.28045e-36 -2.66809e-06)
(6.57719e-36 -7.40525e-23 -2.66802e-06)
(1.48097e-22 7.40484e-23 -2.66787e-06)
(-9.86488e-36 7.40458e-23 -2.66778e-06)
(-6.57621e-36 -0 -2.66763e-06)
(-3.28799e-36 -7.4039e-23 -2.66754e-06)
(-7.4034e-23 -7.4034e-23 -2.66736e-06)
(-0 -0 -2.6674e-06)
(7.40288e-23 7.40288e-23 -2.66717e-06)
(-7.40238e-23 8.21829e-39 -2.66699e-06)
(-7.40249e-23 -6.56651e-36 -2.66703e-06)
(1.48043e-22 7.40215e-23 -2.6669e-06)
(7.40152e-23 -0 -2.66668e-06)
(-1.48019e-22 -7.40093e-23 -2.66647e-06)
(-0 -0 -2.66648e-06)
(7.40098e-23 8.21674e-39 -2.66648e-06)
(-7.40088e-23 -1.42529e-58 -2.66645e-06)
(-7.40008e-23 3.2863e-36 -2.66616e-06)
(7.39965e-23 -3.28611e-36 -2.66601e-06)
(2.21977e-22 1.47984e-22 -2.66585e-06)
(3.28589e-36 3.28589e-36 -2.66583e-06)
(-1.47978e-22 -1.47978e-22 -2.66573e-06)
(-7.39838e-23 -7.39838e-23 -2.66555e-06)
(-7.39847e-23 -0 -2.66558e-06)
(-6.57085e-36 -0 -2.66545e-06)
(7.39776e-23 -0 -2.66532e-06)
(-0 7.3974e-23 -2.6652e-06)
(7.39696e-23 7.39696e-23 -2.66504e-06)
(8.21178e-39 -0 -2.66488e-06)
(-3.28464e-36 -0 -2.66482e-06)
(1.42422e-58 -7.39607e-23 -2.66472e-06)
(-7.39546e-23 -7.39546e-23 -2.66449e-06)
(-0 -0 -2.66446e-06)
(1.47906e-22 1.47906e-22 -2.66443e-06)
(-7.39499e-23 -6.53523e-36 -2.66432e-06)
(-7.39436e-23 -7.39436e-23 -2.6641e-06)
(2.21828e-22 1.47885e-22 -2.66406e-06)
(3.28346e-36 -7.3937e-23 -2.66386e-06)
(-1.47869e-22 -1.47869e-22 -2.66376e-06)
(-7.39323e-23 -0 -2.66369e-06)
(-7.39295e-23 -0 -2.66359e-06)
(3.27486e-36 -0 -2.66354e-06)
(7.39243e-23 -0 -2.6634e-06)
(-0 -0 -2.66332e-06)
(1.47833e-22 7.39164e-23 -2.66312e-06)
(1.4783e-22 1.4783e-22 -2.66307e-06)
(-2.2173e-22 -7.39099e-23 -2.66289e-06)
(-1.47808e-22 -7.39042e-23 -2.66268e-06)
(-3.27394e-36 -3.27394e-36 -2.66279e-06)
(1.47805e-22 7.39027e-23 -2.66263e-06)
(7.38958e-23 -1.64082e-38 -2.66238e-06)
(-1.47792e-22 -1.47792e-22 -2.66238e-06)
(-0 -0 -2.66221e-06)
(7.38902e-23 7.38902e-23 -2.66218e-06)
(8.20352e-39 7.38907e-23 -2.66219e-06)
(-1.47778e-22 -7.38892e-23 -2.66214e-06)
(7.38841e-23 -1.31162e-35 -2.66195e-06)
(7.38826e-23 -7.38826e-23 -2.6619e-06)
(-7.38902e-23 -7.38902e-23 -2.66218e-06)
(-7.39048e-23 7.39048e-23 -2.6627e-06)
(8.56886e-57 7.39407e-23 -2.66399e-06)
(1.48203e-22 7.41014e-23 -2.66978e-06)
(7.48511e-23 -0 -2.6968e-06)
(-1.57469e-22 -7.87345e-23 -2.83671e-06)
(-4.08937e-23 -2.04469e-23 -7.36676e-07)
)
;

boundaryField
{
    top
    {
        type            calculated;
        value           uniform (-3.46661e-23 -1.7333e-23 -0);
    }
    left
    {
        type            empty;
    }
    right
    {
        type            empty;
    }
    front
    {
        type            empty;
    }
    back
    {
        type            empty;
    }
    bottom
    {
        type            calculated;
        value           uniform (7.44806e-23 7.44806e-23 -2.68345e-06);
    }
}


// ************************************************************************* //
