/*--------------------------------*- C++ -*----------------------------------*\
  =========                 |
  \\      /  F ield         | OpenFOAM: The Open Source CFD Toolbox
   \\    /   O peration     | Website:  https://openfoam.org
    \\  /    A nd           | Version:  7
     \\/     M anipulation  |
\*---------------------------------------------------------------------------*/
FoamFile
{
    version     2.0;
    format      ascii;
    class       volScalarField;
    location    "863992.485";
    object      XAR;
}
// * * * * * * * * * * * * * * * * * * * * * * * * * * * * * * * * * * * * * //

dimensions      [1 -3 0 0 0 0 0];

internalField   nonuniform List<scalar> 
200
(
1.04106e-05
1.04186e-05
1.04292e-05
1.04405e-05
1.04521e-05
1.04643e-05
1.04769e-05
1.04901e-05
1.05039e-05
1.05183e-05
1.05332e-05
1.05489e-05
1.05651e-05
1.05821e-05
1.05998e-05
1.06182e-05
1.06375e-05
1.06575e-05
1.06784e-05
1.07001e-05
1.07228e-05
1.07464e-05
1.0771e-05
1.07967e-05
1.08235e-05
1.08513e-05
1.08804e-05
1.09106e-05
1.09421e-05
1.0975e-05
1.10092e-05
1.10449e-05
1.10821e-05
1.11208e-05
1.11612e-05
1.12032e-05
1.12471e-05
1.12928e-05
1.13404e-05
1.139e-05
1.14417e-05
1.14956e-05
1.15517e-05
1.16103e-05
1.16713e-05
1.17349e-05
1.18011e-05
1.18702e-05
1.19422e-05
1.20173e-05
1.20955e-05
1.21771e-05
1.22621e-05
1.23508e-05
1.24432e-05
1.25395e-05
1.26399e-05
1.27447e-05
1.28538e-05
1.29677e-05
1.30863e-05
1.32101e-05
1.33391e-05
1.34737e-05
1.36139e-05
1.37602e-05
1.39127e-05
1.40718e-05
1.42377e-05
1.44106e-05
1.4591e-05
1.4779e-05
1.49752e-05
1.51797e-05
1.5393e-05
1.56154e-05
1.58473e-05
1.60892e-05
1.63414e-05
1.66045e-05
1.68788e-05
1.71649e-05
1.74632e-05
1.77743e-05
1.80988e-05
1.84371e-05
1.879e-05
1.9158e-05
1.95418e-05
1.99421e-05
2.03595e-05
2.07949e-05
2.12489e-05
2.17225e-05
2.22164e-05
2.27316e-05
2.3269e-05
2.38295e-05
2.44141e-05
2.5024e-05
2.56603e-05
2.6324e-05
2.70165e-05
2.77391e-05
2.8493e-05
2.92796e-05
3.01006e-05
3.09574e-05
3.18516e-05
3.27851e-05
3.37595e-05
3.47769e-05
3.58391e-05
3.69484e-05
3.81068e-05
3.93169e-05
4.05809e-05
4.19016e-05
4.32817e-05
4.4724e-05
4.62317e-05
4.78079e-05
4.9456e-05
5.11797e-05
5.29828e-05
5.48693e-05
5.68434e-05
5.89098e-05
6.10732e-05
6.33387e-05
6.57117e-05
6.8198e-05
7.08036e-05
7.3535e-05
7.63992e-05
7.94035e-05
8.25556e-05
8.5864e-05
8.93375e-05
9.29857e-05
9.68186e-05
0.000100847
0.000105083
0.000109539
0.000114228
0.000119164
0.000124363
0.000129842
0.000135618
0.000141712
0.000148143
0.000154936
0.000162113
0.000169703
0.000177735
0.00018624
0.000195253
0.000204813
0.000214962
0.000225746
0.000237217
0.000249432
0.000262454
0.000276354
0.000291211
0.000307114
0.000324164
0.000342475
0.000362176
0.000383416
0.000406364
0.000431218
0.000458204
0.000487589
0.000519685
0.00055486
0.000593553
0.000636289
0.000683705
0.000736573
0.000795848
0.000862715
0.000938667
0.00102561
0.001126
0.00124311
0.00138127
0.0015465
0.00174725
0.0019958
0.00231077
0.00272159
0.00327771
0.00406885
0.00527611
0.00732622
0.0114744
0.0224947
0.061756
0.211332
)
;

boundaryField
{
    top
    {
        type            zeroGradient;
    }
    left
    {
        type            empty;
    }
    right
    {
        type            empty;
    }
    front
    {
        type            empty;
    }
    back
    {
        type            empty;
    }
    bottom
    {
        type            zeroGradient;
    }
}


// ************************************************************************* //
