/*--------------------------------*- C++ -*----------------------------------*\
  =========                 |
  \\      /  F ield         | OpenFOAM: The Open Source CFD Toolbox
   \\    /   O peration     | Website:  https://openfoam.org
    \\  /    A nd           | Version:  7
     \\/     M anipulation  |
\*---------------------------------------------------------------------------*/
FoamFile
{
    version     2.0;
    format      ascii;
    class       volScalarField;
    location    "863992.485";
    object      XDN;
}
// * * * * * * * * * * * * * * * * * * * * * * * * * * * * * * * * * * * * * //

dimensions      [1 -3 0 0 0 0 0];

internalField   nonuniform List<scalar> 
200
(
7.92886e-05
7.92879e-05
7.92875e-05
7.92874e-05
7.92875e-05
7.92879e-05
7.92883e-05
7.9289e-05
7.92898e-05
7.92908e-05
7.9292e-05
7.92933e-05
7.92949e-05
7.92966e-05
7.92986e-05
7.93007e-05
7.93031e-05
7.93057e-05
7.93084e-05
7.93114e-05
7.93146e-05
7.93181e-05
7.93218e-05
7.93257e-05
7.93298e-05
7.93342e-05
7.93389e-05
7.93438e-05
7.93489e-05
7.93543e-05
7.936e-05
7.9366e-05
7.93722e-05
7.93788e-05
7.93856e-05
7.93927e-05
7.94001e-05
7.94079e-05
7.94159e-05
7.94243e-05
7.9433e-05
7.9442e-05
7.94514e-05
7.94612e-05
7.94713e-05
7.94817e-05
7.94925e-05
7.95038e-05
7.95154e-05
7.95274e-05
7.95398e-05
7.95526e-05
7.95658e-05
7.95795e-05
7.95936e-05
7.96082e-05
7.96232e-05
7.96387e-05
7.96546e-05
7.96711e-05
7.9688e-05
7.97055e-05
7.97235e-05
7.9742e-05
7.97611e-05
7.97807e-05
7.98009e-05
7.98217e-05
7.98431e-05
7.98651e-05
7.98877e-05
7.9911e-05
7.99348e-05
7.99594e-05
7.99847e-05
8.00106e-05
8.00373e-05
8.00646e-05
8.00928e-05
8.01217e-05
8.01514e-05
8.01818e-05
8.02131e-05
8.02453e-05
8.02783e-05
8.03122e-05
8.03469e-05
8.03826e-05
8.04193e-05
8.04569e-05
8.04955e-05
8.05352e-05
8.05758e-05
8.06176e-05
8.06604e-05
8.07044e-05
8.07496e-05
8.07959e-05
8.08434e-05
8.08922e-05
8.09422e-05
8.09936e-05
8.10464e-05
8.11005e-05
8.1156e-05
8.1213e-05
8.12716e-05
8.13316e-05
8.13933e-05
8.14566e-05
8.15216e-05
8.15884e-05
8.16569e-05
8.17273e-05
8.17995e-05
8.18738e-05
8.195e-05
8.20283e-05
8.21088e-05
8.21915e-05
8.22764e-05
8.23637e-05
8.24535e-05
8.25457e-05
8.26406e-05
8.27382e-05
8.28385e-05
8.29417e-05
8.30479e-05
8.31572e-05
8.32697e-05
8.33855e-05
8.35047e-05
8.36275e-05
8.3754e-05
8.38844e-05
8.40187e-05
8.41572e-05
8.43e-05
8.44474e-05
8.45994e-05
8.47563e-05
8.49183e-05
8.50856e-05
8.52585e-05
8.54372e-05
8.56219e-05
8.5813e-05
8.60107e-05
8.62153e-05
8.64273e-05
8.66469e-05
8.68746e-05
8.71107e-05
8.73558e-05
8.76103e-05
8.78746e-05
8.81494e-05
8.84352e-05
8.87327e-05
8.90425e-05
8.93654e-05
8.97021e-05
9.00536e-05
9.04208e-05
9.08047e-05
9.12063e-05
9.1627e-05
9.2068e-05
9.25309e-05
9.30171e-05
9.35286e-05
9.40671e-05
9.4635e-05
9.52345e-05
9.58685e-05
9.65399e-05
9.72521e-05
9.8009e-05
9.88151e-05
9.96753e-05
0.000100596
0.000101582
0.000102644
0.00010379
0.00010503
0.00010638
0.000107855
0.000109478
0.000111273
0.000113278
0.000115539
0.000118123
0.00012113
0.000124713
0.000129129
0.000134831
0.000142578
0.00015302
0.000161704
)
;

boundaryField
{
    top
    {
        type            zeroGradient;
    }
    left
    {
        type            empty;
    }
    right
    {
        type            empty;
    }
    front
    {
        type            empty;
    }
    back
    {
        type            empty;
    }
    bottom
    {
        type            zeroGradient;
    }
}


// ************************************************************************* //
