/*--------------------------------*- C++ -*----------------------------------*\
  =========                 |
  \\      /  F ield         | OpenFOAM: The Open Source CFD Toolbox
   \\    /   O peration     | Website:  https://openfoam.org
    \\  /    A nd           | Version:  7
     \\/     M anipulation  |
\*---------------------------------------------------------------------------*/
FoamFile
{
    version     2.0;
    format      ascii;
    class       volScalarField;
    location    "863992.485";
    object      XI;
}
// * * * * * * * * * * * * * * * * * * * * * * * * * * * * * * * * * * * * * //

dimensions      [1 -3 0 0 0 0 0];

internalField   nonuniform List<scalar> 
200
(
5.23774e-05
5.24002e-05
5.24215e-05
5.24436e-05
5.24661e-05
5.24901e-05
5.25147e-05
5.25408e-05
5.25676e-05
5.2596e-05
5.26254e-05
5.26563e-05
5.26883e-05
5.2722e-05
5.27569e-05
5.27936e-05
5.28316e-05
5.28716e-05
5.2913e-05
5.29565e-05
5.30017e-05
5.30491e-05
5.30983e-05
5.31498e-05
5.32034e-05
5.32596e-05
5.33179e-05
5.3379e-05
5.34426e-05
5.35091e-05
5.35783e-05
5.36506e-05
5.3726e-05
5.38048e-05
5.38868e-05
5.39725e-05
5.40618e-05
5.4155e-05
5.42522e-05
5.43537e-05
5.44595e-05
5.45699e-05
5.4685e-05
5.48051e-05
5.49304e-05
5.50611e-05
5.51973e-05
5.53395e-05
5.54877e-05
5.56423e-05
5.58035e-05
5.59717e-05
5.6147e-05
5.63299e-05
5.65205e-05
5.67193e-05
5.69266e-05
5.71427e-05
5.73679e-05
5.76028e-05
5.78475e-05
5.81027e-05
5.83686e-05
5.86458e-05
5.89346e-05
5.92356e-05
5.95492e-05
5.98759e-05
6.02163e-05
6.05709e-05
6.09402e-05
6.1325e-05
6.17256e-05
6.21428e-05
6.25772e-05
6.30295e-05
6.35003e-05
6.39905e-05
6.45006e-05
6.50315e-05
6.5584e-05
6.61588e-05
6.67569e-05
6.7379e-05
6.80261e-05
6.86992e-05
6.93991e-05
7.0127e-05
7.08837e-05
7.16704e-05
7.24882e-05
7.33382e-05
7.42216e-05
7.51396e-05
7.60936e-05
7.70847e-05
7.81144e-05
7.91841e-05
8.02953e-05
8.14494e-05
8.26481e-05
8.38929e-05
8.51856e-05
8.6528e-05
8.79218e-05
8.93691e-05
9.08717e-05
9.24317e-05
9.40513e-05
9.57328e-05
9.74785e-05
9.92907e-05
0.000101172
0.000103125
0.000105153
0.000107258
0.000109444
0.000111714
0.00011407
0.000116517
0.000119058
0.000121697
0.000124437
0.000127284
0.000130241
0.000133313
0.000136505
0.000139822
0.000143269
0.000146853
0.000150578
0.000154451
0.000158478
0.000162667
0.000167025
0.00017156
0.000176279
0.000181191
0.000186306
0.000191633
0.000197182
0.000202964
0.00020899
0.000215273
0.000221826
0.000228662
0.000235796
0.000243244
0.000251023
0.00025915
0.000267644
0.000276528
0.000285821
0.00029555
0.000305738
0.000316414
0.000327609
0.000339354
0.000351686
0.000364644
0.000378269
0.00039261
0.000407716
0.000423646
0.000440461
0.000458232
0.000477037
0.000496963
0.000518109
0.000540584
0.000564514
0.000590043
0.000617334
0.000646576
0.000677986
0.000711817
0.000748365
0.000787981
0.000831079
0.000878155
0.000929807
0.000986764
0.00104993
0.00112041
0.00119962
0.00128937
0.00139201
0.00151066
0.00164956
0.00181462
0.00201433
0.00226141
0.00257575
0.00299053
0.00356561
0.0044221
0.00584905
0.00871468
0.0162843
0.0402446
)
;

boundaryField
{
    top
    {
        type            zeroGradient;
    }
    left
    {
        type            empty;
    }
    right
    {
        type            empty;
    }
    front
    {
        type            empty;
    }
    back
    {
        type            empty;
    }
    bottom
    {
        type            zeroGradient;
    }
}


// ************************************************************************* //
