/*--------------------------------*- C++ -*----------------------------------*\
  =========                 |
  \\      /  F ield         | OpenFOAM: The Open Source CFD Toolbox
   \\    /   O peration     | Website:  https://openfoam.org
    \\  /    A nd           | Version:  7
     \\/     M anipulation  |
\*---------------------------------------------------------------------------*/
FoamFile
{
    version     2.0;
    format      ascii;
    class       volScalarField;
    location    "863992.485";
    object      XN;
}
// * * * * * * * * * * * * * * * * * * * * * * * * * * * * * * * * * * * * * //

dimensions      [1 -3 0 0 0 0 0];

internalField   nonuniform List<scalar> 
200
(
4.25485e-05
4.25583e-05
4.25689e-05
4.25798e-05
4.2591e-05
4.26025e-05
4.26142e-05
4.26264e-05
4.26389e-05
4.26519e-05
4.26652e-05
4.26789e-05
4.2693e-05
4.27076e-05
4.27226e-05
4.27381e-05
4.2754e-05
4.27705e-05
4.27874e-05
4.28049e-05
4.28229e-05
4.28415e-05
4.28607e-05
4.28805e-05
4.29008e-05
4.29219e-05
4.29436e-05
4.2966e-05
4.29891e-05
4.30129e-05
4.30375e-05
4.30629e-05
4.30891e-05
4.31162e-05
4.31441e-05
4.31729e-05
4.32026e-05
4.32334e-05
4.32651e-05
4.32979e-05
4.33317e-05
4.33666e-05
4.34027e-05
4.344e-05
4.34785e-05
4.35183e-05
4.35594e-05
4.36018e-05
4.36457e-05
4.36911e-05
4.37379e-05
4.37864e-05
4.38364e-05
4.38882e-05
4.39417e-05
4.3997e-05
4.40542e-05
4.41133e-05
4.41745e-05
4.42377e-05
4.43031e-05
4.43707e-05
4.44406e-05
4.4513e-05
4.45878e-05
4.46652e-05
4.47452e-05
4.48281e-05
4.49137e-05
4.50024e-05
4.50941e-05
4.5189e-05
4.52872e-05
4.53888e-05
4.54939e-05
4.56027e-05
4.57153e-05
4.58318e-05
4.59524e-05
4.60772e-05
4.62063e-05
4.63399e-05
4.64782e-05
4.66214e-05
4.67695e-05
4.69228e-05
4.70815e-05
4.72458e-05
4.74157e-05
4.75916e-05
4.77737e-05
4.79621e-05
4.81571e-05
4.83589e-05
4.85678e-05
4.8784e-05
4.90077e-05
4.92392e-05
4.94788e-05
4.97268e-05
4.99834e-05
5.0249e-05
5.05238e-05
5.08082e-05
5.11026e-05
5.14073e-05
5.17225e-05
5.20489e-05
5.23866e-05
5.27361e-05
5.30979e-05
5.34724e-05
5.386e-05
5.42613e-05
5.46766e-05
5.51067e-05
5.55519e-05
5.6013e-05
5.64904e-05
5.69848e-05
5.74969e-05
5.80274e-05
5.8577e-05
5.91465e-05
5.97366e-05
6.03483e-05
6.09824e-05
6.16399e-05
6.23218e-05
6.30291e-05
6.3763e-05
6.45246e-05
6.53153e-05
6.61363e-05
6.69892e-05
6.78753e-05
6.87964e-05
6.97541e-05
7.07503e-05
7.1787e-05
7.28662e-05
7.39902e-05
7.51615e-05
7.63825e-05
7.76562e-05
7.89855e-05
8.03736e-05
8.1824e-05
8.33405e-05
8.49272e-05
8.65885e-05
8.83291e-05
9.01542e-05
9.20696e-05
9.40815e-05
9.61964e-05
9.84219e-05
0.000100766
0.000103237
0.000105846
0.000108603
0.00011152
0.000114609
0.000117886
0.000121367
0.00012507
0.000129015
0.000133225
0.000137724
0.000142543
0.000147713
0.000153271
0.000159259
0.000165724
0.000172722
0.000180315
0.000188576
0.000197589
0.000207452
0.000218279
0.000230205
0.000243388
0.000258014
0.000274305
0.000292525
0.000312989
0.000336073
0.000362229
0.000391995
0.000426013
0.000465046
0.000509984
0.000561858
0.000621824
0.00069112
0.0007709
0.000861507
0.000958824
0.00105288
0.00114243
)
;

boundaryField
{
    top
    {
        type            zeroGradient;
    }
    left
    {
        type            empty;
    }
    right
    {
        type            empty;
    }
    front
    {
        type            empty;
    }
    back
    {
        type            empty;
    }
    bottom
    {
        type            zeroGradient;
    }
}


// ************************************************************************* //
