/*--------------------------------*- C++ -*----------------------------------*\
  =========                 |
  \\      /  F ield         | OpenFOAM: The Open Source CFD Toolbox
   \\    /   O peration     | Website:  https://openfoam.org
    \\  /    A nd           | Version:  7
     \\/     M anipulation  |
\*---------------------------------------------------------------------------*/
FoamFile
{
    version     2.0;
    format      ascii;
    class       volVectorField;
    location    "0.000";
    object      U;
}
// * * * * * * * * * * * * * * * * * * * * * * * * * * * * * * * * * * * * * //

dimensions      [0 1 -1 0 0 0 0];

internalField   nonuniform List<vector> 
600
(
(7.11492e-26 1.42298e-25 -4.07982e-09)
(-1.00575e-40 -2.0115e-40 -4.07982e-09)
(-6.28595e-41 -1.25719e-40 -4.07982e-09)
(-1.25719e-40 1.42298e-25 -4.07982e-09)
(-7.11492e-26 -0 -4.07982e-09)
(7.11492e-26 -0 -4.07982e-09)
(7.11492e-26 -0 -4.07982e-09)
(-0 -0 -4.07982e-09)
(-7.11492e-26 -7.11492e-26 -4.07982e-09)
(-7.54314e-40 -7.11492e-26 -4.07982e-09)
(2.51438e-40 -0 -4.07982e-09)
(-5.02876e-40 7.11492e-26 -4.07982e-09)
(2.51438e-40 2.51438e-40 -4.07982e-09)
(-7.11492e-26 -7.11492e-26 -4.07982e-09)
(-0 -0 -4.07982e-09)
(-0 -0 -4.07982e-09)
(-0 7.11492e-26 -4.07982e-09)
(-0 1.25719e-41 -4.07982e-09)
(-0 -7.11492e-26 -4.07982e-09)
(-0 -0 -4.07982e-09)
(-0 7.11492e-26 -4.07982e-09)
(-0 1.25719e-41 -4.07982e-09)
(-0 -7.11492e-26 -4.07982e-09)
(-0 -0 -4.07982e-09)
(-0 7.11492e-26 -4.07982e-09)
(7.11492e-26 7.11492e-26 -4.07982e-09)
(4.77732e-40 -7.11492e-26 -4.07982e-09)
(-1.47091e-39 -1.47091e-39 -4.07982e-09)
(7.11492e-26 7.11492e-26 -4.07982e-09)
(-7.11492e-26 -7.11492e-26 -4.07982e-09)
(-9.80608e-40 -9.80608e-40 -4.07982e-09)
(-1.25719e-41 -1.25719e-41 -4.07982e-09)
(-7.11492e-26 -7.11492e-26 -4.07982e-09)
(-0 7.11492e-26 -4.07982e-09)
(-7.11492e-26 -7.11492e-26 -4.07982e-09)
(7.11492e-26 2.51438e-41 -4.07982e-09)
(7.11492e-26 7.11492e-26 -4.07982e-09)
(-7.11492e-26 -7.11492e-26 -4.07982e-09)
(-0 -0 -4.07982e-09)
(-0 7.11492e-26 -4.07982e-09)
(-0 -9.80608e-40 -4.07982e-09)
(-0 -7.11492e-26 -4.07982e-09)
(-7.11492e-26 -7.11492e-26 -4.07982e-09)
(9.9318e-40 9.9318e-40 -4.07982e-09)
(1.42298e-25 1.42298e-25 -4.07982e-09)
(2.47937e-72 2.47937e-72 -4.07982e-09)
(-7.11492e-26 -7.11492e-26 -4.07982e-09)
(7.11492e-26 7.11492e-26 -4.07982e-09)
(-7.11492e-26 -7.11492e-26 -4.07982e-09)
(-7.11492e-26 -7.11492e-26 -4.07982e-09)
(7.11492e-26 7.11492e-26 -4.07982e-09)
(-0 -0 -4.07982e-09)
(-0 -0 -4.07982e-09)
(-0 -0 -4.07982e-09)
(-0 7.11492e-26 -4.07982e-09)
(-0 9.80608e-40 -4.07982e-09)
(-0 -1.97379e-39 -4.07982e-09)
(-0 -7.11492e-26 -4.07982e-09)
(-0 -7.89515e-39 -4.07982e-09)
(-0 7.11492e-26 -4.07982e-09)
(-0 -7.11492e-26 -4.07982e-09)
(-0 7.11492e-26 -4.07982e-09)
(-0 1.98636e-39 -4.07982e-09)
(-0 -7.11492e-26 -4.07982e-09)
(-0 -0 -4.07982e-09)
(-0 7.11492e-26 -4.07982e-09)
(-0 -0 -4.07982e-09)
(-0 -0 -4.07982e-09)
(-0 1.25719e-41 -4.07982e-09)
(7.11492e-26 -7.11492e-26 -4.07982e-09)
(1.98636e-39 -0 -4.07982e-09)
(-7.11492e-26 7.11492e-26 -4.07982e-09)
(-0 -2.51438e-41 -4.07982e-09)
(-0 -7.11492e-26 -4.07982e-09)
(-0 7.11492e-26 -4.07982e-09)
(-0 -1.96122e-39 -4.07982e-09)
(-0 -7.11492e-26 -4.07982e-09)
(-0 7.11492e-26 -4.07982e-09)
(-0 7.11492e-26 -4.07982e-09)
(-0 -7.11492e-26 -4.07982e-09)
(-0 -7.11492e-26 -4.07982e-09)
(-0 -0 -4.07982e-09)
(-0 -0 -4.07982e-09)
(-0 7.11492e-26 -4.07982e-09)
(7.11492e-26 7.11492e-26 -4.07982e-09)
(2.51438e-41 -7.11492e-26 -4.07982e-09)
(-7.11492e-26 -7.11492e-26 -4.07982e-09)
(-0 -0 -4.07982e-09)
(-0 -0 -4.07982e-09)
(-0 -0 -4.07982e-09)
(-0 -0 -4.07982e-09)
(7.11492e-26 7.11492e-26 -4.07982e-09)
(-3.93501e-39 -3.93501e-39 -4.07982e-09)
(-7.11492e-26 -7.11492e-26 -4.07982e-09)
(-0 -0 -4.07982e-09)
(-0 -0 -4.07982e-09)
(-0 -0 -4.07982e-09)
(-0 -0 -4.07982e-09)
(-0 -0 -4.07982e-09)
(-0 -0 -4.07982e-09)
(-0 -0 -4.07982e-09)
(-0 -0 -4.07982e-09)
(-0 -0 -4.07982e-09)
(-0 -0 -4.07982e-09)
(-0 -0 -4.07982e-09)
(-0 -0 -4.07982e-09)
(-0 -0 -4.07982e-09)
(-0 -0 -4.07982e-09)
(-0 7.11492e-26 -4.07982e-09)
(-0 1.97379e-39 -4.07982e-09)
(-0 -3.94758e-39 -4.07982e-09)
(-0 1.97379e-39 -4.07982e-09)
(-0 -7.11492e-26 -4.07982e-09)
(-7.11492e-26 -7.11492e-26 -4.07982e-09)
(1.97379e-39 1.97379e-39 -4.07982e-09)
(7.11492e-26 7.11492e-26 -4.07982e-09)
(7.11492e-26 -0 -4.07982e-09)
(5.92137e-39 7.11492e-26 -4.07982e-09)
(-7.11492e-26 3.96015e-39 -4.07982e-09)
(-0 -7.11492e-26 -4.07982e-09)
(-0 -0 -4.07982e-09)
(-0 -0 -4.07982e-09)
(-0 -0 -4.07982e-09)
(-0 7.11492e-26 -4.07982e-09)
(7.11492e-26 7.11492e-26 -4.07982e-09)
(7.11492e-26 -0 -4.07982e-09)
(-0 -0 -4.07982e-09)
(-7.11492e-26 -7.11492e-26 -4.07982e-09)
(3.96015e-39 3.96015e-39 -4.07982e-09)
(2.51438e-41 2.51438e-41 -4.07982e-09)
(1.25719e-41 1.25719e-41 -4.07982e-09)
(-3.97272e-39 1.42298e-25 -4.07982e-09)
(-7.11492e-26 -7.11492e-26 -4.07982e-09)
(-0 -1.42298e-25 -4.07982e-09)
(-0 -0 -4.07982e-09)
(-0 7.11492e-26 -4.07982e-09)
(7.11492e-26 7.11492e-26 -4.07982e-09)
(-0 -7.11492e-26 -4.07982e-09)
(-3.94758e-39 -3.94758e-39 -4.07982e-09)
(7.11492e-26 1.42298e-25 -4.07982e-09)
(-7.11492e-26 -7.11492e-26 -4.07982e-09)
(-7.11492e-26 -1.42298e-25 -4.07982e-09)
(-0 -0 -4.07982e-09)
(7.11492e-26 7.11492e-26 -4.07982e-09)
(3.94758e-39 3.94758e-39 -4.07982e-09)
(-7.11492e-26 -7.11492e-26 -4.07982e-09)
(-0 -0 -4.07982e-09)
(-0 -0 -4.07982e-09)
(-0 -0 -4.07982e-09)
(7.11492e-26 7.11492e-26 -4.07982e-09)
(-2.51438e-41 -2.51438e-41 -4.07982e-09)
(-7.11492e-26 -7.11492e-26 -4.07982e-09)
(-0 1.42298e-25 -4.07982e-09)
(-0 7.89515e-39 -4.07982e-09)
(-0 -1.42298e-25 -4.07982e-09)
(-0 -0 -4.07982e-09)
(7.11492e-26 7.11492e-26 -4.07982e-09)
(-1.25719e-41 -1.25719e-41 -4.07982e-09)
(-7.11492e-26 -7.11492e-26 -4.07982e-09)
(-0 -0 -4.07982e-09)
(-0 -0 -4.07982e-09)
(-0 -0 -4.07982e-09)
(7.11492e-26 7.11492e-26 -4.07982e-09)
(-1.25719e-41 -1.25719e-41 -4.07982e-09)
(-7.11492e-26 -7.11492e-26 -4.07982e-09)
(-0 -0 -4.07982e-09)
(-0 1.42298e-25 -4.07982e-09)
(-0 1.58155e-38 -4.07982e-09)
(7.11492e-26 -7.11492e-26 -4.07982e-09)
(7.11492e-26 7.11492e-26 -4.07982e-09)
(-0 -0 -4.07982e-09)
(-7.11492e-26 7.11492e-26 -4.07982e-09)
(-7.11492e-26 -7.11492e-26 -4.07982e-09)
(-0 -1.42298e-25 -4.07982e-09)
(-0 7.11492e-26 -4.07982e-09)
(-0 -2.51438e-41 -4.07982e-09)
(-0 -3.94758e-39 -4.07982e-09)
(-0 3.94758e-39 -4.07982e-09)
(-0 -3.94758e-39 -4.07982e-09)
(-0 -1.25719e-41 -4.07982e-09)
(-0 -3.96015e-39 -4.07982e-09)
(-0 -2.51438e-41 -4.07982e-09)
(-0 -7.11492e-26 -4.07982e-09)
(-0 -0 -4.07982e-09)
(-0 -0 -4.07982e-09)
(-0 -0 -4.07982e-09)
(-0 7.11492e-26 -4.07982e-09)
(-0 3.94758e-39 -4.07982e-09)
(-0 -7.11492e-26 -4.07982e-09)
(-0 1.42298e-25 -4.07982e-09)
(-0 7.89515e-39 -4.07982e-09)
(-0 -1.42298e-25 -4.07982e-09)
(-0 7.11492e-26 -4.07982e-09)
(-0 7.90773e-39 -4.07982e-09)
(-0 -7.11492e-26 -4.07982e-09)
(-0 -0 -4.07982e-09)
(-0 7.11492e-26 -4.07982e-09)
(-0 -3.96015e-39 -4.07982e-09)
(-0 -1.58029e-38 -4.07982e-09)
(-0 3.94758e-39 -4.07982e-09)
(-0 -7.11492e-26 -4.07982e-09)
(7.11492e-26 7.11492e-26 -4.07982e-09)
(3.94758e-39 7.11492e-26 -4.07982e-09)
(-7.11492e-26 -7.11492e-26 -4.07982e-09)
(-0 -7.11492e-26 -4.07982e-09)
(-0 -0 -4.07982e-09)
(-0 -0 -4.07982e-09)
(-0 -0 -4.07982e-09)
(-0 7.11492e-26 -4.07982e-09)
(7.11492e-26 7.11492e-26 -4.07982e-09)
(-1.57903e-38 -7.11492e-26 -4.07982e-09)
(-7.11492e-26 7.11492e-26 -4.07982e-09)
(-0 -3.15555e-38 -4.07982e-09)
(-0 -1.42298e-25 -4.07982e-09)
(-0 -0 -4.07982e-09)
(-0 -0 -4.07982e-09)
(-0 -0 -4.07982e-09)
(-0 -0 -4.07982e-09)
(7.11492e-26 7.11492e-26 -4.07982e-09)
(7.11492e-26 7.11492e-26 -4.07982e-09)
(-0 -0 -4.07982e-09)
(-7.11492e-26 -0 -4.07982e-09)
(-7.11492e-26 -7.11492e-26 -4.07982e-09)
(-0 -7.11492e-26 -4.07982e-09)
(-0 -0 -4.07982e-09)
(-0 -0 -4.07982e-09)
(-0 -0 -4.07982e-09)
(7.11492e-26 7.11492e-26 -4.07982e-09)
(3.93501e-39 7.11492e-26 -4.07982e-09)
(-7.11492e-26 -7.11492e-26 -4.07982e-09)
(-0 -7.11492e-26 -4.07982e-09)
(-0 -0 -4.07982e-09)
(-0 -0 -4.07982e-09)
(-0 7.11492e-26 -4.07982e-09)
(7.11492e-26 7.11492e-26 -4.07982e-09)
(7.90773e-39 -7.11492e-26 -4.07982e-09)
(-3.92243e-39 -3.92243e-39 -4.07982e-09)
(7.11492e-26 7.11492e-26 -4.07982e-09)
(-0 -0 -4.07982e-09)
(-0 -0 -4.07982e-09)
(-0 -0 -4.07982e-09)
(-7.11492e-26 -7.11492e-26 -4.07982e-09)
(-7.11492e-26 7.11492e-26 -4.07982e-09)
(-0 -2.51438e-41 -4.07982e-09)
(7.11492e-26 -7.11492e-26 -4.07982e-09)
(-3.96015e-39 -3.96015e-39 -4.07982e-09)
(-1.57903e-38 -1.57903e-38 -4.07982e-09)
(7.88258e-39 7.88258e-39 -4.07982e-09)
(-3.93501e-39 -3.93501e-39 -4.07982e-09)
(1.57903e-38 1.57903e-38 -4.07982e-09)
(-7.11492e-26 -7.11492e-26 -4.07982e-09)
(-0 -0 -4.07982e-09)
(-0 -0 -4.07982e-09)
(-0 -0 -4.07982e-09)
(-0 -0 -4.07982e-09)
(-0 -0 -4.07982e-09)
(-0 -0 -4.07982e-09)
(-0 -0 -4.07982e-09)
(-0 -0 -4.07982e-09)
(-0 -0 -4.07982e-09)
(-0 -0 -4.07982e-09)
(-0 -0 -4.07982e-09)
(-0 -0 -4.07982e-09)
(-0 -0 -4.07982e-09)
(-7.11492e-26 -0 -4.07982e-09)
(1.25719e-41 -0 -4.07982e-09)
(7.11492e-26 -0 -4.07982e-09)
(-0 -0 -4.07982e-09)
(-0 -0 -4.07982e-09)
(-0 -0 -4.07982e-09)
(-0 -0 -4.07982e-09)
(-0 7.11492e-26 -4.07982e-09)
(-0 -0 -4.07982e-09)
(-0 -7.11492e-26 -4.07982e-09)
(-0 -0 -4.07982e-09)
(-0 -0 -4.07982e-09)
(-0 -0 -4.07982e-09)
(-0 -0 -4.07982e-09)
(-0 -0 -4.07982e-09)
(-0 -0 -4.07982e-09)
(-0 -7.11492e-26 -4.07982e-09)
(-0 1.25719e-41 -4.07982e-09)
(7.11492e-26 1.42298e-25 -4.07982e-09)
(-1.57903e-38 7.11492e-26 -4.07982e-09)
(-1.42298e-25 -7.11492e-26 -4.07982e-09)
(4.95874e-72 4.95874e-72 -4.07982e-09)
(7.11492e-26 7.11492e-26 -4.07982e-09)
(-0 -0 -4.07982e-09)
(-0 -7.11492e-26 -4.07982e-09)
(-0 -7.11492e-26 -4.07982e-09)
(-0 -0 -4.07982e-09)
(-0 -0 -4.07982e-09)
(-0 -0 -4.07982e-09)
(-0 -0 -4.07982e-09)
(-0 -0 -4.07982e-09)
(-0 -0 -4.07982e-09)
(-0 7.11492e-26 -4.07982e-09)
(-0 7.11492e-26 -4.07982e-09)
(-0 -0 -4.07982e-09)
(-0 -0 -4.07982e-09)
(-0 -7.11492e-26 -4.07982e-09)
(-0 -7.11492e-26 -4.07982e-09)
(-0 -0 -4.07982e-09)
(-0 -0 -4.07982e-09)
(-0 -0 -4.07982e-09)
(-0 -0 -4.07982e-09)
(-0 7.11492e-26 -4.07982e-09)
(-0 7.11492e-26 -4.07982e-09)
(-7.11492e-26 -7.11492e-26 -4.07982e-09)
(-2.47937e-72 -2.47937e-72 -4.07982e-09)
(7.11492e-26 7.11492e-26 -4.07982e-09)
(-0 -0 -4.07982e-09)
(-0 -0 -4.07982e-09)
(-0 -0 -4.07982e-09)
(-0 -7.11492e-26 -4.07982e-09)
(-7.11492e-26 -7.11492e-26 -4.07982e-09)
(-0 -0 -4.07982e-09)
(7.11492e-26 -0 -4.07982e-09)
(7.11492e-26 7.11492e-26 -4.07982e-09)
(-7.89515e-39 -7.89515e-39 -4.07982e-09)
(-1.42298e-25 -1.42298e-25 -4.07982e-09)
(1.25719e-41 1.25719e-41 -4.07982e-09)
(1.42298e-25 1.42298e-25 -4.07982e-09)
(6.19843e-73 7.11492e-26 -4.07982e-09)
(-7.11492e-26 -0 -4.07982e-09)
(-0 -0 -4.07982e-09)
(-0 -7.11492e-26 -4.07982e-09)
(-0 -7.11492e-26 -4.07982e-09)
(-0 -0 -4.07982e-09)
(-0 -0 -4.07982e-09)
(-0 -0 -4.07982e-09)
(-0 -0 -4.07982e-09)
(-0 -0 -4.07982e-09)
(-0 -0 -4.07982e-09)
(-0 7.11492e-26 -4.07982e-09)
(-0 7.11492e-26 -4.07982e-09)
(-0 -0 -4.07982e-09)
(-0 -0 -4.07982e-09)
(-0 -7.11492e-26 -4.07982e-09)
(-0 -7.11492e-26 -4.07982e-09)
(-0 -0 -4.07982e-09)
(-0 -0 -4.07982e-09)
(-7.11492e-26 -7.11492e-26 -4.07982e-09)
(1.25719e-41 7.11492e-26 -4.07982e-09)
(7.11492e-26 7.11492e-26 -4.07982e-09)
(-0 -7.11492e-26 -4.07982e-09)
(-0 -0 -4.07982e-09)
(-0 -0 -4.07982e-09)
(-0 7.11492e-26 -4.07982e-09)
(-0 7.11492e-26 -4.07982e-09)
(-0 -7.11492e-26 -4.07982e-09)
(-0 -7.11492e-26 -4.07982e-09)
(-0 7.11492e-26 -4.07982e-09)
(-0 7.11492e-26 -4.07982e-09)
(-0 -7.11492e-26 -4.07982e-09)
(-0 -7.11492e-26 -4.07982e-09)
(-0 7.11492e-26 -4.07982e-09)
(-0 -0 -4.07982e-09)
(-7.11492e-26 -7.11492e-26 -4.07982e-09)
(7.89515e-39 -0 -4.07982e-09)
(7.11492e-26 7.11492e-26 -4.07982e-09)
(-0 7.11492e-26 -4.07982e-09)
(-0 -7.11492e-26 -4.07982e-09)
(-0 -7.11492e-26 -4.07982e-09)
(-0 7.11492e-26 -4.07982e-09)
(-0 -1.58029e-38 -4.07982e-09)
(-0 -7.11492e-26 -4.07982e-09)
(-0 -0 -4.07982e-09)
(-0 -0 -4.07982e-09)
(-0 -0 -4.07982e-09)
(-0 -0 -4.07982e-09)
(-0 -0 -4.07982e-09)
(-0 -0 -4.07982e-09)
(-0 7.11492e-26 -4.07982e-09)
(-0 2.36855e-38 -4.07982e-09)
(-0 -7.11492e-26 -4.07982e-09)
(-0 7.11492e-26 -4.07982e-09)
(-0 7.11492e-26 -4.07982e-09)
(-7.11492e-26 -7.11492e-26 -4.07982e-09)
(-7.9203e-39 -7.9203e-39 -4.07982e-09)
(7.11492e-26 -3.15932e-38 -4.07982e-09)
(-0 -7.11492e-26 -4.07982e-09)
(-0 -0 -4.07982e-09)
(-0 -0 -4.07982e-09)
(-0 7.11492e-26 -4.07982e-09)
(-0 7.11492e-26 -4.07982e-09)
(-0 -7.11492e-26 -4.07982e-09)
(-7.11492e-26 -7.11492e-26 -4.07982e-09)
(7.90773e-39 -0 -4.07982e-09)
(7.11492e-26 -0 -4.07982e-09)
(-0 -0 -4.07982e-09)
(-0 -0 -4.07982e-09)
(-0 -0 -4.07982e-09)
(-0 -0 -4.07982e-09)
(-7.11492e-26 -0 -4.07982e-09)
(-7.11492e-26 -0 -4.07982e-09)
(7.11492e-26 -0 -4.07982e-09)
(7.11492e-26 7.11492e-26 -4.07982e-09)
(-0 -0 -4.07982e-09)
(-0 -7.11492e-26 -4.07982e-09)
(-0 -0 -4.07982e-09)
(-0 7.11492e-26 -4.07982e-09)
(-0 7.89515e-39 -4.07982e-09)
(-0 7.89515e-39 -4.07982e-09)
(-0 -1.58029e-38 -4.07982e-09)
(-0 -7.11492e-26 -4.07982e-09)
(-0 7.11492e-26 -4.07982e-09)
(-7.11492e-26 -6.19843e-73 -4.07982e-09)
(-7.88258e-39 -7.88258e-39 -4.07982e-09)
(7.11492e-26 -6.19843e-73 -4.07982e-09)
(-0 -1.58029e-38 -4.07982e-09)
(-0 1.58029e-38 -4.07982e-09)
(-0 -7.11492e-26 -4.07982e-09)
(-0 -0 -4.07982e-09)
(-0 7.11492e-26 -4.07982e-09)
(-0 1.57903e-38 -4.07982e-09)
(-0 -0 -4.07982e-09)
(-0 7.89515e-39 -4.07982e-09)
(-0 -7.11492e-26 -4.07982e-09)
(7.11492e-26 7.11492e-26 -4.07982e-09)
(-7.89515e-39 -7.89515e-39 -4.07982e-09)
(-1.42298e-25 -1.42298e-25 -4.07982e-09)
(-1.57903e-38 7.11492e-26 -4.07982e-09)
(1.42298e-25 1.42298e-25 -4.07982e-09)
(7.88258e-39 -0 -4.07982e-09)
(-1.42298e-25 -7.11492e-26 -4.07982e-09)
(4.95874e-72 4.95874e-72 -4.07982e-09)
(7.11492e-26 7.89515e-39 -4.07982e-09)
(-0 -7.11492e-26 -4.07982e-09)
(-0 -0 -4.07982e-09)
(-0 -0 -4.07982e-09)
(-0 -0 -4.07982e-09)
(-0 -0 -4.07982e-09)
(-0 -0 -4.07982e-09)
(-0 -0 -4.07982e-09)
(-7.11492e-26 -0 -4.07982e-09)
(-1.57777e-38 -0 -4.07982e-09)
(7.11492e-26 -0 -4.07982e-09)
(-0 -0 -4.07982e-09)
(-0 -0 -4.07982e-09)
(-0 -0 -4.07982e-09)
(-0 -0 -4.07982e-09)
(-0 -0 -4.07982e-09)
(-0 -0 -4.07982e-09)
(-7.11492e-26 -0 -4.07982e-09)
(-7.11492e-26 -0 -4.07982e-09)
(7.11492e-26 7.11492e-26 -4.07982e-09)
(7.11492e-26 -6.19843e-73 -4.07982e-09)
(-0 -7.11492e-26 -4.07982e-09)
(-0 -0 -4.07982e-09)
(-0 7.11492e-26 -4.07982e-09)
(-0 -0 -4.07982e-09)
(-0 -7.11492e-26 -4.07982e-09)
(-0 -0 -4.07982e-09)
(-7.11492e-26 -0 -4.07982e-09)
(-1.25719e-41 -0 -4.07982e-09)
(7.11492e-26 -0 -4.07982e-09)
(-0 -0 -4.07982e-09)
(-0 -0 -4.07982e-09)
(7.11492e-26 7.11492e-26 -4.07982e-09)
(-0 -0 -4.07982e-09)
(-1.42298e-25 -1.42298e-25 -4.07982e-09)
(7.89515e-39 7.11492e-26 -4.07982e-09)
(7.89515e-39 7.11492e-26 -4.07982e-09)
(-0 -0 -4.07982e-09)
(7.11492e-26 -1.58155e-38 -4.07982e-09)
(-0 -7.11492e-26 -4.07982e-09)
(-0 -7.11492e-26 -4.07982e-09)
(-0 2.36855e-38 -4.07982e-09)
(-0 7.11492e-26 -4.07982e-09)
(-0 -0 -4.07982e-09)
(-0 -0 -4.07982e-09)
(-0 -0 -4.07982e-09)
(-0 -0 -4.07982e-09)
(-0 7.11492e-26 -4.07982e-09)
(-0 7.89515e-39 -4.07982e-09)
(-0 -7.11492e-26 -4.07982e-09)
(-0 7.11492e-26 -4.07982e-09)
(-0 7.11492e-26 -4.07982e-09)
(-0 -7.11492e-26 -4.07982e-09)
(-0 -7.11492e-26 -4.07982e-09)
(-0 -0 -4.07982e-09)
(-0 -0 -4.07982e-09)
(-0 -0 -4.07982e-09)
(-0 -0 -4.07982e-09)
(-0 -0 -4.07982e-09)
(-7.11492e-26 -0 -4.07982e-09)
(1.57903e-38 -0 -4.07982e-09)
(7.11492e-26 -0 -4.07982e-09)
(-0 -0 -4.07982e-09)
(-0 -0 -4.07982e-09)
(-0 -0 -4.07982e-09)
(-0 -0 -4.07982e-09)
(-0 -0 -4.07982e-09)
(-0 -0 -4.07982e-09)
(-7.11492e-26 -0 -4.07982e-09)
(-7.11492e-26 -0 -4.07982e-09)
(7.11492e-26 -0 -4.07982e-09)
(7.11492e-26 -0 -4.07982e-09)
(-0 -0 -4.07982e-09)
(-0 -0 -4.07982e-09)
(-0 -0 -4.07982e-09)
(-0 7.11492e-26 -4.07982e-09)
(-0 7.11492e-26 -4.07982e-09)
(-0 -7.11492e-26 -4.07982e-09)
(-0 -7.11492e-26 -4.07982e-09)
(-0 7.11492e-26 -4.07982e-09)
(-0 -3.77157e-41 -4.07982e-09)
(-0 -7.11492e-26 -4.07982e-09)
(-0 -0 -4.07982e-09)
(-0 -0 -4.07982e-09)
(-0 -0 -4.07982e-09)
(-0 -0 -4.07982e-09)
(-0 -0 -4.07982e-09)
(-0 -0 -4.07982e-09)
(-0 -0 -4.07982e-09)
(-0 -0 -4.07982e-09)
(-0 -0 -4.07982e-09)
(-0 -0 -4.07982e-09)
(-0 7.11492e-26 -4.07982e-09)
(-0 1.25719e-41 -4.07982e-09)
(-0 -7.11492e-26 -4.07982e-09)
(-0 -0 -4.07982e-09)
(-0 -0 -4.07982e-09)
(-0 -0 -4.07982e-09)
(-0 -0 -4.07982e-09)
(-0 -0 -4.07982e-09)
(-0 7.11492e-26 -4.07982e-09)
(-0 -1.57903e-38 -4.07982e-09)
(-0 -7.11492e-26 -4.07982e-09)
(-0 -0 -4.07982e-09)
(-7.11492e-26 -0 -4.07982e-09)
(3.77157e-41 -0 -4.07982e-09)
(7.11492e-26 -0 -4.07982e-09)
(-0 -0 -4.07982e-09)
(-0 -0 -4.07982e-09)
(-0 -0 -4.07982e-09)
(-0 -0 -4.07982e-09)
(-0 -0 -4.07982e-09)
(-0 7.11492e-26 -4.07982e-09)
(-0 1.58029e-38 -4.07982e-09)
(-0 -7.11492e-26 -4.07982e-09)
(-0 -0 -4.07982e-09)
(-0 -0 -4.07982e-09)
(-0 -0 -4.07982e-09)
(-0 -0 -4.07982e-09)
(-0 -0 -4.07982e-09)
(-0 -0 -4.07982e-09)
(-0 -0 -4.07982e-09)
(-0 -0 -4.07982e-09)
(-0 7.11492e-26 -4.07982e-09)
(-0 7.11492e-26 -4.07982e-09)
(-0 -7.11492e-26 -4.07982e-09)
(-0 -7.11492e-26 -4.07982e-09)
(-0 -0 -4.07982e-09)
(-0 -0 -4.07982e-09)
(-0 -0 -4.07982e-09)
(-0 -0 -4.07982e-09)
(-0 7.11492e-26 -4.07982e-09)
(-0 -1.58155e-38 -4.07982e-09)
(-0 -7.11492e-26 -4.07982e-09)
(7.11492e-26 7.11492e-26 -4.07982e-09)
(-4.73961e-38 -4.73961e-38 -4.07982e-09)
(-7.11492e-26 -7.11492e-26 -4.07982e-09)
(-0 7.11492e-26 -4.07982e-09)
(-0 -3.15932e-38 -4.07982e-09)
(-0 -7.11492e-26 -4.07982e-09)
(-0 7.11492e-26 -4.07982e-09)
(-0 -0 -4.07982e-09)
(-0 -7.11492e-26 -4.07982e-09)
(-0 -0 -4.07982e-09)
(-0 7.11492e-26 -4.07982e-09)
(-0 7.11492e-26 -4.07982e-09)
(-0 -7.11492e-26 -4.07982e-09)
(-0 -7.11492e-26 -4.07982e-09)
(-0 -0 -4.07982e-09)
(-7.11492e-26 -0 -4.07982e-09)
(-1.58029e-38 -0 -4.07982e-09)
(7.11492e-26 7.11492e-26 -4.07982e-09)
(-0 1.58155e-38 -4.07982e-09)
(-0 -7.11492e-26 -4.07982e-09)
(-0 -0 -4.07982e-09)
(-0 -0 -4.07982e-09)
(-0 -0 -4.07982e-09)
(-0 -0 -4.07982e-09)
(-0 -0 -4.07982e-09)
(-0 -0 -4.07982e-09)
(-0 -0 -4.07982e-09)
(-0 -0 -4.07982e-09)
(-0 -0 -4.07982e-09)
(-0 -0 -4.07982e-09)
(-0 -0 -4.07982e-09)
(-0 7.11492e-26 -4.07982e-09)
(-0 -1.25719e-41 -4.07982e-09)
(-0 -7.11492e-26 -4.07982e-09)
(-0 -0 -4.07982e-09)
(-0 7.11492e-26 -4.07982e-09)
(-0 1.58155e-38 -4.07982e-09)
(-0 -7.11492e-26 -4.07982e-09)
(-0 -0 -4.07982e-09)
)
;

boundaryField
{
    top
    {
        type            calculated;
        value           uniform (-0 -0 -0.023018);
    }
    left
    {
        type            empty;
    }
    right
    {
        type            empty;
    }
    front
    {
        type            empty;
    }
    back
    {
        type            empty;
    }
    bottom
    {
        type            calculated;
        value           uniform (7.11492e-26 1.42298e-25 -4.07982e-09);
    }
}


// ************************************************************************* //
