/*--------------------------------*- C++ -*----------------------------------*\
  =========                 |
  \\      /  F ield         | OpenFOAM: The Open Source CFD Toolbox
   \\    /   O peration     | Website:  https://openfoam.org
    \\  /    A nd           | Version:  7
     \\/     M anipulation  |
\*---------------------------------------------------------------------------*/
FoamFile
{
    version     2.0;
    format      ascii;
    class       volVectorField;
    location    "0.000";
    object      U;
}
// * * * * * * * * * * * * * * * * * * * * * * * * * * * * * * * * * * * * * //

dimensions      [0 1 -1 0 0 0 0];

internalField   nonuniform List<vector> 
200
(
(1.12493e-21 1.12493e-21 -4.053e-05)
(1.12493e-21 1.12493e-21 -4.053e-05)
(-1.12493e-21 -0 -4.053e-05)
(-5.86996e-36 -1.12493e-21 -4.053e-05)
(1.12493e-21 -1.12493e-21 -4.053e-05)
(1.12493e-21 1.12493e-21 -4.053e-05)
(-2.99742e-36 1.12493e-21 -4.053e-05)
(-1.12493e-21 -0 -4.053e-05)
(1.12493e-21 -0 -4.053e-05)
(-1.12493e-21 -1.12493e-21 -4.053e-05)
(-2.24987e-21 -1.12493e-21 -4.053e-05)
(2.24987e-21 2.24987e-21 -4.053e-05)
(2.24987e-21 2.24987e-21 -4.053e-05)
(-3.3748e-21 -3.3748e-21 -4.053e-05)
(-0 -0 -4.053e-05)
(3.3748e-21 2.24987e-21 -4.053e-05)
(-2.24987e-21 -2.24987e-21 -4.053e-05)
(2.49785e-37 1.24893e-37 -4.053e-05)
(1.12493e-21 1.12493e-21 -4.053e-05)
(1.87339e-35 2.24987e-21 -4.053e-05)
(1.12493e-21 -2.49785e-37 -4.053e-05)
(-0 -2.24987e-21 -4.053e-05)
(-3.3748e-21 -1.12493e-21 -4.053e-05)
(-7.44361e-35 1.12493e-21 -4.053e-05)
(4.49973e-21 2.24987e-21 -4.053e-05)
(-2.24987e-21 -1.12493e-21 -4.053e-05)
(-3.3748e-21 -2.24987e-21 -4.053e-05)
(3.3748e-21 1.12493e-21 -4.053e-05)
(-7.49356e-35 1.12493e-21 -4.053e-05)
(-3.3748e-21 -2.24987e-21 -4.053e-05)
(-0 -1.24893e-37 -4.053e-05)
(-0 -1.26142e-35 -4.053e-05)
(2.24987e-21 -1.26142e-35 -4.053e-05)
(1.12493e-21 1.12493e-21 -4.053e-05)
(-1.26142e-35 1.12493e-21 -4.053e-05)
(-1.12493e-21 -1.24893e-37 -4.053e-05)
(-2.24987e-21 -2.24987e-21 -4.053e-05)
(3.3748e-21 1.12493e-21 -4.053e-05)
(2.24987e-21 1.12493e-21 -4.053e-05)
(-1.24893e-35 -1.24893e-35 -4.053e-05)
(-2.24987e-21 -9.8523e-68 -4.053e-05)
(-2.24987e-21 -1.12493e-21 -4.053e-05)
(-1.26142e-35 -0 -4.053e-05)
(-0 -0 -4.053e-05)
(2.24987e-21 -0 -4.053e-05)
(-1.24893e-35 -1.12493e-21 -4.053e-05)
(-1.26142e-35 -1.26142e-35 -4.053e-05)
(-1.12493e-21 -1.24893e-37 -4.053e-05)
(-5.02069e-35 -2.51034e-35 -4.053e-05)
(-2.52283e-35 -1.12493e-21 -4.053e-05)
(-2.24987e-21 -1.12493e-21 -4.053e-05)
(2.24987e-21 3.3748e-21 -4.053e-05)
(1.97046e-67 -1.12493e-21 -4.053e-05)
(-5.02069e-35 -7.49356e-35 -4.053e-05)
(4.99571e-35 1.12493e-21 -4.053e-05)
(-2.24987e-21 -1.12493e-21 -4.053e-05)
(2.24987e-21 1.12493e-21 -4.053e-05)
(2.24987e-21 -0 -4.053e-05)
(-0 1.12493e-21 -4.053e-05)
(-0 1.12493e-21 -4.053e-05)
(-0 -1.12493e-21 -4.053e-05)
(-0 -1.12493e-21 -4.053e-05)
(-0 1.12493e-21 -4.053e-05)
(-2.24987e-21 -1.12493e-21 -4.053e-05)
(-2.24987e-21 -3.3748e-21 -4.053e-05)
(2.24987e-21 1.12493e-21 -4.053e-05)
(4.97073e-35 1.12493e-21 -4.053e-05)
(-2.24987e-21 -0 -4.053e-05)
(-0 -1.12493e-21 -4.053e-05)
(-1.12493e-21 -1.12493e-21 -4.053e-05)
(-4.98322e-35 1.12493e-21 -4.053e-05)
(1.12493e-21 -0 -4.053e-05)
(-0 -1.12493e-21 -4.053e-05)
(-1.12493e-21 9.23653e-69 -4.053e-05)
(1.12493e-21 1.12493e-21 -4.053e-05)
(3.3748e-21 2.24987e-21 -4.053e-05)
(-1.12493e-21 -9.99142e-35 -4.053e-05)
(-2.24987e-21 -1.12493e-21 -4.053e-05)
(-0 -2.48536e-35 -4.053e-05)
(-0 -1.12493e-21 -4.053e-05)
(-0 -0 -4.053e-05)
(1.12493e-21 1.12493e-21 -4.053e-05)
(2.24987e-21 2.24987e-21 -4.053e-05)
(1.00039e-34 1.00039e-34 -4.053e-05)
(-2.24987e-21 -2.24987e-21 -4.053e-05)
(-1.12493e-21 -1.12493e-21 -4.053e-05)
(2.24987e-21 1.12493e-21 -4.053e-05)
(5.04567e-35 2.52283e-35 -4.053e-05)
(-1.12493e-21 -2.47288e-35 -4.053e-05)
(2.24987e-21 1.12493e-21 -4.053e-05)
(-1.12493e-21 -1.12493e-21 -4.053e-05)
(-1.49372e-34 1.12493e-21 -4.053e-05)
(4.99571e-35 1.12493e-21 -4.053e-05)
(-2.24987e-21 -2.24987e-21 -4.053e-05)
(-0 -7.48107e-35 -4.053e-05)
(-0 1.24893e-37 -4.053e-05)
(2.24987e-21 -5.0082e-35 -4.053e-05)
(-4.99571e-35 -1.12493e-21 -4.053e-05)
(-2.24987e-21 -1.12493e-21 -4.053e-05)
(-0 1.12493e-21 -4.053e-05)
(-1.12493e-21 -0 -4.053e-05)
(2.24987e-21 2.24987e-21 -4.053e-05)
(1.12493e-21 1.99828e-34 -4.053e-05)
(-2.24987e-21 -2.24987e-21 -4.053e-05)
(-1.12493e-21 -0 -4.053e-05)
(1.12493e-21 1.12493e-21 -4.053e-05)
(1.12493e-21 1.24893e-37 -4.053e-05)
(-1.12493e-21 -1.12493e-21 -4.053e-05)
(-1.12493e-21 -0 -4.053e-05)
(2.24987e-21 1.12493e-21 -4.053e-05)
(4.99571e-37 1.24893e-37 -4.053e-05)
(-2.24987e-21 -1.12493e-21 -4.053e-05)
(2.24987e-21 1.12493e-21 -4.053e-05)
(-1.12493e-21 -4.98322e-35 -4.053e-05)
(-1.12493e-21 -1.12493e-21 -4.053e-05)
(4.98322e-35 -0 -4.053e-05)
(1.12493e-21 1.12493e-21 -4.053e-05)
(-0 -0 -4.053e-05)
(9.96644e-35 4.98322e-35 -4.053e-05)
(2.49785e-37 1.24893e-37 -4.053e-05)
(-9.96644e-35 -4.98322e-35 -4.053e-05)
(-9.96644e-35 -4.98322e-35 -4.053e-05)
(-1.12493e-21 -1.12493e-21 -4.053e-05)
(1.12493e-21 -0 -4.053e-05)
(-0 -0 -4.053e-05)
(-1.12493e-21 -0 -4.053e-05)
(1.12493e-21 1.12493e-21 -4.053e-05)
(1.12493e-21 1.24893e-37 -4.053e-05)
(-9.97893e-35 -9.97893e-35 -4.053e-05)
(-4.99571e-35 -4.99571e-35 -4.053e-05)
(-1.12493e-21 -1.12493e-21 -4.053e-05)
(-1.12493e-21 -0 -4.053e-05)
(1.12493e-21 1.12493e-21 -4.053e-05)
(1.12493e-21 -4.99571e-35 -4.053e-05)
(-1.12493e-21 -0 -4.053e-05)
(-1.12493e-21 -4.98322e-35 -4.053e-05)
(9.99142e-35 -1.12493e-21 -4.053e-05)
(2.24987e-21 1.12493e-21 -4.053e-05)
(-1.49871e-34 1.12493e-21 -4.053e-05)
(-9.99142e-35 -0 -4.053e-05)
(-4.99571e-35 -1.12493e-21 -4.053e-05)
(-1.12493e-21 -1.12493e-21 -4.053e-05)
(-0 -0 -4.053e-05)
(1.12493e-21 1.12493e-21 -4.053e-05)
(-1.12493e-21 1.24893e-37 -4.053e-05)
(-1.12493e-21 -9.97893e-35 -4.053e-05)
(2.24987e-21 1.12493e-21 -4.053e-05)
(1.12493e-21 -0 -4.053e-05)
(-2.24987e-21 -1.12493e-21 -4.053e-05)
(-0 -0 -4.053e-05)
(1.12493e-21 1.24893e-37 -4.053e-05)
(-1.12493e-21 -0 -4.053e-05)
(-1.12493e-21 4.99571e-35 -4.053e-05)
(1.12493e-21 -4.99571e-35 -4.053e-05)
(3.3748e-21 2.24987e-21 -4.053e-05)
(4.99571e-35 4.99571e-35 -4.053e-05)
(-2.24987e-21 -2.24987e-21 -4.053e-05)
(-1.12493e-21 -1.12493e-21 -4.053e-05)
(-1.12493e-21 -0 -4.053e-05)
(-9.99142e-35 -0 -4.053e-05)
(1.12493e-21 -0 -4.053e-05)
(-0 1.12493e-21 -4.053e-05)
(1.12493e-21 1.12493e-21 -4.053e-05)
(1.24893e-37 -0 -4.053e-05)
(-4.99571e-35 -0 -4.053e-05)
(-6.15769e-69 -1.12493e-21 -4.053e-05)
(-1.12493e-21 -1.12493e-21 -4.053e-05)
(-0 -0 -4.053e-05)
(2.24987e-21 2.24987e-21 -4.053e-05)
(-1.12493e-21 -9.94146e-35 -4.053e-05)
(-1.12493e-21 -1.12493e-21 -4.053e-05)
(3.3748e-21 2.24987e-21 -4.053e-05)
(4.99571e-35 -1.12493e-21 -4.053e-05)
(-2.24987e-21 -2.24987e-21 -4.053e-05)
(-1.12493e-21 -0 -4.053e-05)
(-1.12493e-21 -0 -4.053e-05)
(4.98322e-35 -0 -4.053e-05)
(1.12493e-21 -0 -4.053e-05)
(-0 -0 -4.053e-05)
(2.24987e-21 1.12493e-21 -4.053e-05)
(2.24987e-21 2.24987e-21 -4.053e-05)
(-3.3748e-21 -1.12493e-21 -4.053e-05)
(-2.24987e-21 -1.12493e-21 -4.053e-05)
(-4.98322e-35 -4.98322e-35 -4.053e-05)
(2.24987e-21 1.12493e-21 -4.053e-05)
(1.12493e-21 -2.49785e-37 -4.053e-05)
(-2.24987e-21 -2.24987e-21 -4.053e-05)
(-0 -0 -4.053e-05)
(1.12493e-21 1.12493e-21 -4.053e-05)
(1.24893e-37 1.12493e-21 -4.053e-05)
(-2.24987e-21 -1.12493e-21 -4.053e-05)
(1.12493e-21 -1.99703e-34 -4.053e-05)
(1.12493e-21 -1.12493e-21 -4.053e-05)
(-1.12493e-21 -1.12493e-21 -4.053e-05)
(-1.12493e-21 1.12493e-21 -4.053e-05)
(-0 1.12493e-21 -4.053e-05)
(2.24987e-21 1.12493e-21 -4.053e-05)
(1.12493e-21 -0 -4.053e-05)
(-2.24987e-21 -1.12493e-21 -4.053e-05)
(-7.49956e-22 -3.74978e-22 -1.351e-05)
)
;

boundaryField
{
    top
    {
        type            calculated;
        value           uniform (-7.07564e-22 -3.53782e-22 -0);
    }
    left
    {
        type            empty;
    }
    right
    {
        type            empty;
    }
    front
    {
        type            empty;
    }
    back
    {
        type            empty;
    }
    bottom
    {
        type            calculated;
        value           uniform (1.12493e-21 1.12493e-21 -4.053e-05);
    }
}


// ************************************************************************* //
