/*--------------------------------*- C++ -*----------------------------------*\
  =========                 |
  \\      /  F ield         | OpenFOAM: The Open Source CFD Toolbox
   \\    /   O peration     | Website:  https://openfoam.org
    \\  /    A nd           | Version:  7
     \\/     M anipulation  |
\*---------------------------------------------------------------------------*/
FoamFile
{
    version     2.0;
    format      ascii;
    class       volVectorField;
    location    "0.000";
    object      U;
}
// * * * * * * * * * * * * * * * * * * * * * * * * * * * * * * * * * * * * * //

dimensions      [0 1 -1 0 0 0 0];

internalField   nonuniform List<vector> 
200
(
(1.9506e-21 1.9506e-21 -7.02779e-05)
(1.9506e-21 1.9506e-21 -7.02779e-05)
(-1.9506e-21 -0 -7.02779e-05)
(-1.01783e-35 -1.9506e-21 -7.02779e-05)
(1.9506e-21 -1.9506e-21 -7.02779e-05)
(1.9506e-21 1.9506e-21 -7.02779e-05)
(-5.19745e-36 1.9506e-21 -7.02779e-05)
(-1.9506e-21 -0 -7.02779e-05)
(1.9506e-21 -0 -7.02779e-05)
(-1.9506e-21 -1.9506e-21 -7.02779e-05)
(-3.90121e-21 -1.9506e-21 -7.02779e-05)
(3.90121e-21 3.90121e-21 -7.02779e-05)
(3.90121e-21 3.90121e-21 -7.02779e-05)
(-5.85181e-21 -5.85181e-21 -7.02779e-05)
(-0 -0 -7.02779e-05)
(5.85181e-21 3.90121e-21 -7.02779e-05)
(-3.90121e-21 -3.90121e-21 -7.02779e-05)
(4.33121e-37 2.1656e-37 -7.02779e-05)
(1.9506e-21 1.9506e-21 -7.02779e-05)
(3.24841e-35 3.90121e-21 -7.02779e-05)
(1.9506e-21 -4.33121e-37 -7.02779e-05)
(-0 -3.90121e-21 -7.02779e-05)
(-5.85181e-21 -1.9506e-21 -7.02779e-05)
(-1.2907e-34 1.9506e-21 -7.02779e-05)
(7.80241e-21 3.90121e-21 -7.02779e-05)
(-3.90121e-21 -1.9506e-21 -7.02779e-05)
(-5.85181e-21 -3.90121e-21 -7.02779e-05)
(5.85181e-21 1.9506e-21 -7.02779e-05)
(-1.29936e-34 1.9506e-21 -7.02779e-05)
(-5.85181e-21 -3.90121e-21 -7.02779e-05)
(-0 -2.1656e-37 -7.02779e-05)
(-0 -2.18726e-35 -7.02779e-05)
(3.90121e-21 -2.18726e-35 -7.02779e-05)
(1.9506e-21 1.9506e-21 -7.02779e-05)
(-2.18726e-35 1.9506e-21 -7.02779e-05)
(-1.9506e-21 -2.1656e-37 -7.02779e-05)
(-3.90121e-21 -3.90121e-21 -7.02779e-05)
(5.85181e-21 1.9506e-21 -7.02779e-05)
(3.90121e-21 1.9506e-21 -7.02779e-05)
(-2.1656e-35 -2.1656e-35 -7.02779e-05)
(-3.90121e-21 -1.70836e-67 -7.02779e-05)
(-3.90121e-21 -1.9506e-21 -7.02779e-05)
(-2.18726e-35 -0 -7.02779e-05)
(-0 -0 -7.02779e-05)
(3.90121e-21 -0 -7.02779e-05)
(-2.1656e-35 -1.9506e-21 -7.02779e-05)
(-2.18726e-35 -2.18726e-35 -7.02779e-05)
(-1.9506e-21 -2.1656e-37 -7.02779e-05)
(-8.70573e-35 -4.35286e-35 -7.02779e-05)
(-4.37452e-35 -1.9506e-21 -7.02779e-05)
(-3.90121e-21 -1.9506e-21 -7.02779e-05)
(3.90121e-21 5.85181e-21 -7.02779e-05)
(3.41672e-67 -1.9506e-21 -7.02779e-05)
(-8.70573e-35 -1.29936e-34 -7.02779e-05)
(8.66242e-35 1.9506e-21 -7.02779e-05)
(-3.90121e-21 -1.9506e-21 -7.02779e-05)
(3.90121e-21 1.9506e-21 -7.02779e-05)
(3.90121e-21 -0 -7.02779e-05)
(-0 1.9506e-21 -7.02779e-05)
(-0 1.9506e-21 -7.02779e-05)
(-0 -1.9506e-21 -7.02779e-05)
(-0 -1.9506e-21 -7.02779e-05)
(-0 1.9506e-21 -7.02779e-05)
(-3.90121e-21 -1.9506e-21 -7.02779e-05)
(-3.90121e-21 -5.85181e-21 -7.02779e-05)
(3.90121e-21 1.9506e-21 -7.02779e-05)
(8.6191e-35 1.9506e-21 -7.02779e-05)
(-3.90121e-21 -0 -7.02779e-05)
(-0 -1.9506e-21 -7.02779e-05)
(-1.9506e-21 -1.9506e-21 -7.02779e-05)
(-8.64076e-35 1.9506e-21 -7.02779e-05)
(1.9506e-21 -0 -7.02779e-05)
(-0 -1.9506e-21 -7.02779e-05)
(-1.9506e-21 1.60159e-68 -7.02779e-05)
(1.9506e-21 1.9506e-21 -7.02779e-05)
(5.85181e-21 3.90121e-21 -7.02779e-05)
(-1.9506e-21 -1.73248e-34 -7.02779e-05)
(-3.90121e-21 -1.9506e-21 -7.02779e-05)
(-0 -4.30955e-35 -7.02779e-05)
(-0 -1.9506e-21 -7.02779e-05)
(-0 -0 -7.02779e-05)
(1.9506e-21 1.9506e-21 -7.02779e-05)
(3.90121e-21 3.90121e-21 -7.02779e-05)
(1.73465e-34 1.73465e-34 -7.02779e-05)
(-3.90121e-21 -3.90121e-21 -7.02779e-05)
(-1.9506e-21 -1.9506e-21 -7.02779e-05)
(3.90121e-21 1.9506e-21 -7.02779e-05)
(8.74904e-35 4.37452e-35 -7.02779e-05)
(-1.9506e-21 -4.2879e-35 -7.02779e-05)
(3.90121e-21 1.9506e-21 -7.02779e-05)
(-1.9506e-21 -1.9506e-21 -7.02779e-05)
(-2.59006e-34 1.9506e-21 -7.02779e-05)
(8.66242e-35 1.9506e-21 -7.02779e-05)
(-3.90121e-21 -3.90121e-21 -7.02779e-05)
(-0 -1.2972e-34 -7.02779e-05)
(-0 2.1656e-37 -7.02779e-05)
(3.90121e-21 -8.68407e-35 -7.02779e-05)
(-8.66242e-35 -1.9506e-21 -7.02779e-05)
(-3.90121e-21 -1.9506e-21 -7.02779e-05)
(-0 1.9506e-21 -7.02779e-05)
(-1.9506e-21 -0 -7.02779e-05)
(3.90121e-21 3.90121e-21 -7.02779e-05)
(1.9506e-21 3.46497e-34 -7.02779e-05)
(-3.90121e-21 -3.90121e-21 -7.02779e-05)
(-1.9506e-21 -0 -7.02779e-05)
(1.9506e-21 1.9506e-21 -7.02779e-05)
(1.9506e-21 2.1656e-37 -7.02779e-05)
(-1.9506e-21 -1.9506e-21 -7.02779e-05)
(-1.9506e-21 -0 -7.02779e-05)
(3.90121e-21 1.9506e-21 -7.02779e-05)
(8.66242e-37 2.1656e-37 -7.02779e-05)
(-3.90121e-21 -1.9506e-21 -7.02779e-05)
(3.90121e-21 1.9506e-21 -7.02779e-05)
(-1.9506e-21 -8.64076e-35 -7.02779e-05)
(-1.9506e-21 -1.9506e-21 -7.02779e-05)
(8.64076e-35 -0 -7.02779e-05)
(1.9506e-21 1.9506e-21 -7.02779e-05)
(-0 -0 -7.02779e-05)
(1.72815e-34 8.64076e-35 -7.02779e-05)
(4.33121e-37 2.1656e-37 -7.02779e-05)
(-1.72815e-34 -8.64076e-35 -7.02779e-05)
(-1.72815e-34 -8.64076e-35 -7.02779e-05)
(-1.9506e-21 -1.9506e-21 -7.02779e-05)
(1.9506e-21 -0 -7.02779e-05)
(-0 -0 -7.02779e-05)
(-1.9506e-21 -0 -7.02779e-05)
(1.9506e-21 1.9506e-21 -7.02779e-05)
(1.9506e-21 2.1656e-37 -7.02779e-05)
(-1.73032e-34 -1.73032e-34 -7.02779e-05)
(-8.66242e-35 -8.66242e-35 -7.02779e-05)
(-1.9506e-21 -1.9506e-21 -7.02779e-05)
(-1.9506e-21 -0 -7.02779e-05)
(1.9506e-21 1.9506e-21 -7.02779e-05)
(1.9506e-21 -8.66242e-35 -7.02779e-05)
(-1.9506e-21 -0 -7.02779e-05)
(-1.9506e-21 -8.64076e-35 -7.02779e-05)
(1.73248e-34 -1.9506e-21 -7.02779e-05)
(3.90121e-21 1.9506e-21 -7.02779e-05)
(-2.59872e-34 1.9506e-21 -7.02779e-05)
(-1.73248e-34 -0 -7.02779e-05)
(-8.66242e-35 -1.9506e-21 -7.02779e-05)
(-1.9506e-21 -1.9506e-21 -7.02779e-05)
(-0 -0 -7.02779e-05)
(1.9506e-21 1.9506e-21 -7.02779e-05)
(-1.9506e-21 2.1656e-37 -7.02779e-05)
(-1.9506e-21 -1.73032e-34 -7.02779e-05)
(3.90121e-21 1.9506e-21 -7.02779e-05)
(1.9506e-21 -0 -7.02779e-05)
(-3.90121e-21 -1.9506e-21 -7.02779e-05)
(-0 -0 -7.02779e-05)
(1.9506e-21 2.1656e-37 -7.02779e-05)
(-1.9506e-21 -0 -7.02779e-05)
(-1.9506e-21 8.66242e-35 -7.02779e-05)
(1.9506e-21 -8.66242e-35 -7.02779e-05)
(5.85181e-21 3.90121e-21 -7.02779e-05)
(8.66242e-35 8.66242e-35 -7.02779e-05)
(-3.90121e-21 -3.90121e-21 -7.02779e-05)
(-1.9506e-21 -1.9506e-21 -7.02779e-05)
(-1.9506e-21 -0 -7.02779e-05)
(-1.73248e-34 -0 -7.02779e-05)
(1.9506e-21 -0 -7.02779e-05)
(-0 1.9506e-21 -7.02779e-05)
(1.9506e-21 1.9506e-21 -7.02779e-05)
(2.1656e-37 -0 -7.02779e-05)
(-8.66242e-35 -0 -7.02779e-05)
(-1.06773e-68 -1.9506e-21 -7.02779e-05)
(-1.9506e-21 -1.9506e-21 -7.02779e-05)
(-0 -0 -7.02779e-05)
(3.90121e-21 3.90121e-21 -7.02779e-05)
(-1.9506e-21 -1.72382e-34 -7.02779e-05)
(-1.9506e-21 -1.9506e-21 -7.02779e-05)
(5.85181e-21 3.90121e-21 -7.02779e-05)
(8.66242e-35 -1.9506e-21 -7.02779e-05)
(-3.90121e-21 -3.90121e-21 -7.02779e-05)
(-1.9506e-21 -0 -7.02779e-05)
(-1.9506e-21 -0 -7.02779e-05)
(8.64076e-35 -0 -7.02779e-05)
(1.9506e-21 -0 -7.02779e-05)
(-0 -0 -7.02779e-05)
(3.90121e-21 1.9506e-21 -7.02779e-05)
(3.90121e-21 3.90121e-21 -7.02779e-05)
(-5.85181e-21 -1.9506e-21 -7.02779e-05)
(-3.90121e-21 -1.9506e-21 -7.02779e-05)
(-8.64076e-35 -8.64076e-35 -7.02779e-05)
(3.90121e-21 1.9506e-21 -7.02779e-05)
(1.9506e-21 -4.33121e-37 -7.02779e-05)
(-3.90121e-21 -3.90121e-21 -7.02779e-05)
(-0 -0 -7.02779e-05)
(1.9506e-21 1.9506e-21 -7.02779e-05)
(2.1656e-37 1.9506e-21 -7.02779e-05)
(-3.90121e-21 -1.9506e-21 -7.02779e-05)
(1.9506e-21 -3.4628e-34 -7.02779e-05)
(1.9506e-21 -1.9506e-21 -7.02779e-05)
(-1.9506e-21 -1.9506e-21 -7.02779e-05)
(-1.9506e-21 1.9506e-21 -7.02779e-05)
(-0 1.9506e-21 -7.02779e-05)
(3.90121e-21 1.9506e-21 -7.02779e-05)
(1.9506e-21 -0 -7.02779e-05)
(-3.90121e-21 -1.9506e-21 -7.02779e-05)
(-2.99092e-20 -1.49546e-20 -0.000538797)
)
;

boundaryField
{
    top
    {
        type            calculated;
        value           uniform (-2.99092e-20 -1.49546e-20 -0.000773057);
    }
    left
    {
        type            empty;
    }
    right
    {
        type            empty;
    }
    front
    {
        type            empty;
    }
    back
    {
        type            empty;
    }
    bottom
    {
        type            calculated;
        value           uniform (1.9506e-21 1.9506e-21 -7.02779e-05);
    }
}


// ************************************************************************* //
