/*--------------------------------*- C++ -*----------------------------------*\
  =========                 |
  \\      /  F ield         | OpenFOAM: The Open Source CFD Toolbox
   \\    /   O peration     | Website:  https://openfoam.org
    \\  /    A nd           | Version:  7
     \\/     M anipulation  |
\*---------------------------------------------------------------------------*/
FoamFile
{
    version     2.0;
    format      ascii;
    class       volVectorField;
    location    "0.000";
    object      U;
}
// * * * * * * * * * * * * * * * * * * * * * * * * * * * * * * * * * * * * * //

dimensions      [0 1 -1 0 0 0 0];

internalField   nonuniform List<vector> 
600
(
(3.60212e-21 7.20424e-21 -0.000206552)
(-5.09189e-36 -1.01838e-35 -0.000206552)
(-3.18243e-36 -6.36487e-36 -0.000206552)
(-6.36487e-36 7.20424e-21 -0.000206552)
(-3.60212e-21 -0 -0.000206552)
(3.60212e-21 -0 -0.000206552)
(3.60212e-21 -0 -0.000206552)
(-0 -0 -0.000206552)
(-3.60212e-21 -3.60212e-21 -0.000206552)
(-3.81892e-35 -3.60212e-21 -0.000206552)
(1.27297e-35 -0 -0.000206552)
(-2.54595e-35 3.60212e-21 -0.000206552)
(1.27297e-35 1.27297e-35 -0.000206552)
(-3.60212e-21 -3.60212e-21 -0.000206552)
(-0 -0 -0.000206552)
(-0 -0 -0.000206552)
(-0 3.60212e-21 -0.000206552)
(-0 6.36487e-37 -0.000206552)
(-0 -3.60212e-21 -0.000206552)
(-0 -0 -0.000206552)
(-0 3.60212e-21 -0.000206552)
(-0 6.36487e-37 -0.000206552)
(-0 -3.60212e-21 -0.000206552)
(-0 -0 -0.000206552)
(-0 3.60212e-21 -0.000206552)
(3.60212e-21 3.60212e-21 -0.000206552)
(2.41865e-35 -3.60212e-21 -0.000206552)
(-7.44689e-35 -7.44689e-35 -0.000206552)
(3.60212e-21 3.60212e-21 -0.000206552)
(-3.60212e-21 -3.60212e-21 -0.000206552)
(-4.9646e-35 -4.9646e-35 -0.000206552)
(-6.36487e-37 -6.36487e-37 -0.000206552)
(-3.60212e-21 -3.60212e-21 -0.000206552)
(-0 3.60212e-21 -0.000206552)
(-3.60212e-21 -3.60212e-21 -0.000206552)
(3.60212e-21 1.27297e-36 -0.000206552)
(3.60212e-21 3.60212e-21 -0.000206552)
(-3.60212e-21 -3.60212e-21 -0.000206552)
(-0 -0 -0.000206552)
(-0 3.60212e-21 -0.000206552)
(-0 -4.9646e-35 -0.000206552)
(-0 -3.60212e-21 -0.000206552)
(-3.60212e-21 -3.60212e-21 -0.000206552)
(5.02824e-35 5.02824e-35 -0.000206552)
(7.20424e-21 7.20424e-21 -0.000206552)
(1.25525e-67 1.25525e-67 -0.000206552)
(-3.60212e-21 -3.60212e-21 -0.000206552)
(3.60212e-21 3.60212e-21 -0.000206552)
(-3.60212e-21 -3.60212e-21 -0.000206552)
(-3.60212e-21 -3.60212e-21 -0.000206552)
(3.60212e-21 3.60212e-21 -0.000206552)
(-0 -0 -0.000206552)
(-0 -0 -0.000206552)
(-0 -0 -0.000206552)
(-0 3.60212e-21 -0.000206552)
(-0 4.9646e-35 -0.000206552)
(-0 -9.99284e-35 -0.000206552)
(-0 -3.60212e-21 -0.000206552)
(-0 -3.99714e-34 -0.000206552)
(-0 3.60212e-21 -0.000206552)
(-0 -3.60212e-21 -0.000206552)
(-0 3.60212e-21 -0.000206552)
(-0 1.00565e-34 -0.000206552)
(-0 -3.60212e-21 -0.000206552)
(-0 -0 -0.000206552)
(-0 3.60212e-21 -0.000206552)
(-0 -0 -0.000206552)
(-0 -0 -0.000206552)
(-0 6.36487e-37 -0.000206552)
(3.60212e-21 -3.60212e-21 -0.000206552)
(1.00565e-34 -0 -0.000206552)
(-3.60212e-21 3.60212e-21 -0.000206552)
(-0 -1.27297e-36 -0.000206552)
(-0 -3.60212e-21 -0.000206552)
(-0 3.60212e-21 -0.000206552)
(-0 -9.92919e-35 -0.000206552)
(-0 -3.60212e-21 -0.000206552)
(-0 3.60212e-21 -0.000206552)
(-0 3.60212e-21 -0.000206552)
(-0 -3.60212e-21 -0.000206552)
(-0 -3.60212e-21 -0.000206552)
(-0 -0 -0.000206552)
(-0 -0 -0.000206552)
(-0 3.60212e-21 -0.000206552)
(3.60212e-21 3.60212e-21 -0.000206552)
(1.27297e-36 -3.60212e-21 -0.000206552)
(-3.60212e-21 -3.60212e-21 -0.000206552)
(-0 -0 -0.000206552)
(-0 -0 -0.000206552)
(-0 -0 -0.000206552)
(-0 -0 -0.000206552)
(3.60212e-21 3.60212e-21 -0.000206552)
(-1.9922e-34 -1.9922e-34 -0.000206552)
(-3.60212e-21 -3.60212e-21 -0.000206552)
(-0 -0 -0.000206552)
(-0 -0 -0.000206552)
(-0 -0 -0.000206552)
(-0 -0 -0.000206552)
(-0 -0 -0.000206552)
(-0 -0 -0.000206552)
(-0 -0 -0.000206552)
(-0 -0 -0.000206552)
(-0 -0 -0.000206552)
(-0 -0 -0.000206552)
(-0 -0 -0.000206552)
(-0 -0 -0.000206552)
(-0 -0 -0.000206552)
(-0 -0 -0.000206552)
(-0 3.60212e-21 -0.000206552)
(-0 9.99284e-35 -0.000206552)
(-0 -1.99857e-34 -0.000206552)
(-0 9.99284e-35 -0.000206552)
(-0 -3.60212e-21 -0.000206552)
(-3.60212e-21 -3.60212e-21 -0.000206552)
(9.99284e-35 9.99284e-35 -0.000206552)
(3.60212e-21 3.60212e-21 -0.000206552)
(3.60212e-21 -0 -0.000206552)
(2.99785e-34 3.60212e-21 -0.000206552)
(-3.60212e-21 2.00493e-34 -0.000206552)
(-0 -3.60212e-21 -0.000206552)
(-0 -0 -0.000206552)
(-0 -0 -0.000206552)
(-0 -0 -0.000206552)
(-0 3.60212e-21 -0.000206552)
(3.60212e-21 3.60212e-21 -0.000206552)
(3.60212e-21 -0 -0.000206552)
(-0 -0 -0.000206552)
(-3.60212e-21 -3.60212e-21 -0.000206552)
(2.00493e-34 2.00493e-34 -0.000206552)
(1.27297e-36 1.27297e-36 -0.000206552)
(6.36487e-37 6.36487e-37 -0.000206552)
(-2.0113e-34 7.20424e-21 -0.000206552)
(-3.60212e-21 -3.60212e-21 -0.000206552)
(-0 -7.20424e-21 -0.000206552)
(-0 -0 -0.000206552)
(-0 3.60212e-21 -0.000206552)
(3.60212e-21 3.60212e-21 -0.000206552)
(-0 -3.60212e-21 -0.000206552)
(-1.99857e-34 -1.99857e-34 -0.000206552)
(3.60212e-21 7.20424e-21 -0.000206552)
(-3.60212e-21 -3.60212e-21 -0.000206552)
(-3.60212e-21 -7.20424e-21 -0.000206552)
(-0 -0 -0.000206552)
(3.60212e-21 3.60212e-21 -0.000206552)
(1.99857e-34 1.99857e-34 -0.000206552)
(-3.60212e-21 -3.60212e-21 -0.000206552)
(-0 -0 -0.000206552)
(-0 -0 -0.000206552)
(-0 -0 -0.000206552)
(3.60212e-21 3.60212e-21 -0.000206552)
(-1.27297e-36 -1.27297e-36 -0.000206552)
(-3.60212e-21 -3.60212e-21 -0.000206552)
(-0 7.20424e-21 -0.000206552)
(-0 3.99714e-34 -0.000206552)
(-0 -7.20424e-21 -0.000206552)
(-0 -0 -0.000206552)
(3.60212e-21 3.60212e-21 -0.000206552)
(-6.36487e-37 -6.36487e-37 -0.000206552)
(-3.60212e-21 -3.60212e-21 -0.000206552)
(-0 -0 -0.000206552)
(-0 -0 -0.000206552)
(-0 -0 -0.000206552)
(3.60212e-21 3.60212e-21 -0.000206552)
(-6.36487e-37 -6.36487e-37 -0.000206552)
(-3.60212e-21 -3.60212e-21 -0.000206552)
(-0 -0 -0.000206552)
(-0 7.20424e-21 -0.000206552)
(-0 8.007e-34 -0.000206552)
(3.60212e-21 -3.60212e-21 -0.000206552)
(3.60212e-21 3.60212e-21 -0.000206552)
(-0 -0 -0.000206552)
(-3.60212e-21 3.60212e-21 -0.000206552)
(-3.60212e-21 -3.60212e-21 -0.000206552)
(-0 -7.20424e-21 -0.000206552)
(-0 3.60212e-21 -0.000206552)
(-0 -1.27297e-36 -0.000206552)
(-0 -1.99857e-34 -0.000206552)
(-0 1.99857e-34 -0.000206552)
(-0 -1.99857e-34 -0.000206552)
(-0 -6.36487e-37 -0.000206552)
(-0 -2.00493e-34 -0.000206552)
(-0 -1.27297e-36 -0.000206552)
(-0 -3.60212e-21 -0.000206552)
(-0 -0 -0.000206552)
(-0 -0 -0.000206552)
(-0 -0 -0.000206552)
(-0 3.60212e-21 -0.000206552)
(-0 1.99857e-34 -0.000206552)
(-0 -3.60212e-21 -0.000206552)
(-0 7.20424e-21 -0.000206552)
(-0 3.99714e-34 -0.000206552)
(-0 -7.20424e-21 -0.000206552)
(-0 3.60212e-21 -0.000206552)
(-0 4.0035e-34 -0.000206552)
(-0 -3.60212e-21 -0.000206552)
(-0 -0 -0.000206552)
(-0 3.60212e-21 -0.000206552)
(-0 -2.00493e-34 -0.000206552)
(-0 -8.00064e-34 -0.000206552)
(-0 1.99857e-34 -0.000206552)
(-0 -3.60212e-21 -0.000206552)
(3.60212e-21 3.60212e-21 -0.000206552)
(1.99857e-34 3.60212e-21 -0.000206552)
(-3.60212e-21 -3.60212e-21 -0.000206552)
(-0 -3.60212e-21 -0.000206552)
(-0 -0 -0.000206552)
(-0 -0 -0.000206552)
(-0 -0 -0.000206552)
(-0 3.60212e-21 -0.000206552)
(3.60212e-21 3.60212e-21 -0.000206552)
(-7.99427e-34 -3.60212e-21 -0.000206552)
(-3.60212e-21 3.60212e-21 -0.000206552)
(-0 -1.59758e-33 -0.000206552)
(-0 -7.20424e-21 -0.000206552)
(-0 -0 -0.000206552)
(-0 -0 -0.000206552)
(-0 -0 -0.000206552)
(-0 -0 -0.000206552)
(3.60212e-21 3.60212e-21 -0.000206552)
(3.60212e-21 3.60212e-21 -0.000206552)
(-0 -0 -0.000206552)
(-3.60212e-21 -0 -0.000206552)
(-3.60212e-21 -3.60212e-21 -0.000206552)
(-0 -3.60212e-21 -0.000206552)
(-0 -0 -0.000206552)
(-0 -0 -0.000206552)
(-0 -0 -0.000206552)
(3.60212e-21 3.60212e-21 -0.000206552)
(1.9922e-34 3.60212e-21 -0.000206552)
(-3.60212e-21 -3.60212e-21 -0.000206552)
(-0 -3.60212e-21 -0.000206552)
(-0 -0 -0.000206552)
(-0 -0 -0.000206552)
(-0 3.60212e-21 -0.000206552)
(3.60212e-21 3.60212e-21 -0.000206552)
(4.0035e-34 -3.60212e-21 -0.000206552)
(-1.98584e-34 -1.98584e-34 -0.000206552)
(3.60212e-21 3.60212e-21 -0.000206552)
(-0 -0 -0.000206552)
(-0 -0 -0.000206552)
(-0 -0 -0.000206552)
(-3.60212e-21 -3.60212e-21 -0.000206552)
(-3.60212e-21 3.60212e-21 -0.000206552)
(-0 -1.27297e-36 -0.000206552)
(3.60212e-21 -3.60212e-21 -0.000206552)
(-2.00493e-34 -2.00493e-34 -0.000206552)
(-7.99427e-34 -7.99427e-34 -0.000206552)
(3.99077e-34 3.99077e-34 -0.000206552)
(-1.9922e-34 -1.9922e-34 -0.000206552)
(7.99427e-34 7.99427e-34 -0.000206552)
(-3.60212e-21 -3.60212e-21 -0.000206552)
(-0 -0 -0.000206552)
(-0 -0 -0.000206552)
(-0 -0 -0.000206552)
(-0 -0 -0.000206552)
(-0 -0 -0.000206552)
(-0 -0 -0.000206552)
(-0 -0 -0.000206552)
(-0 -0 -0.000206552)
(-0 -0 -0.000206552)
(-0 -0 -0.000206552)
(-0 -0 -0.000206552)
(-0 -0 -0.000206552)
(-0 -0 -0.000206552)
(-3.60212e-21 -0 -0.000206552)
(6.36487e-37 -0 -0.000206552)
(3.60212e-21 -0 -0.000206552)
(-0 -0 -0.000206552)
(-0 -0 -0.000206552)
(-0 -0 -0.000206552)
(-0 -0 -0.000206552)
(-0 3.60212e-21 -0.000206552)
(-0 -0 -0.000206552)
(-0 -3.60212e-21 -0.000206552)
(-0 -0 -0.000206552)
(-0 -0 -0.000206552)
(-0 -0 -0.000206552)
(-0 -0 -0.000206552)
(-0 -0 -0.000206552)
(-0 -0 -0.000206552)
(-0 -3.60212e-21 -0.000206552)
(-0 6.36487e-37 -0.000206552)
(3.60212e-21 7.20424e-21 -0.000206552)
(-7.99427e-34 3.60212e-21 -0.000206552)
(-7.20424e-21 -3.60212e-21 -0.000206552)
(2.5105e-67 2.5105e-67 -0.000206552)
(3.60212e-21 3.60212e-21 -0.000206552)
(-0 -0 -0.000206552)
(-0 -3.60212e-21 -0.000206552)
(-0 -3.60212e-21 -0.000206552)
(-0 -0 -0.000206552)
(-0 -0 -0.000206552)
(-0 -0 -0.000206552)
(-0 -0 -0.000206552)
(-0 -0 -0.000206552)
(-0 -0 -0.000206552)
(-0 3.60212e-21 -0.000206552)
(-0 3.60212e-21 -0.000206552)
(-0 -0 -0.000206552)
(-0 -0 -0.000206552)
(-0 -3.60212e-21 -0.000206552)
(-0 -3.60212e-21 -0.000206552)
(-0 -0 -0.000206552)
(-0 -0 -0.000206552)
(-0 -0 -0.000206552)
(-0 -0 -0.000206552)
(-0 3.60212e-21 -0.000206552)
(-0 3.60212e-21 -0.000206552)
(-3.60212e-21 -3.60212e-21 -0.000206552)
(-1.25525e-67 -1.25525e-67 -0.000206552)
(3.60212e-21 3.60212e-21 -0.000206552)
(-0 -0 -0.000206552)
(-0 -0 -0.000206552)
(-0 -0 -0.000206552)
(-0 -3.60212e-21 -0.000206552)
(-3.60212e-21 -3.60212e-21 -0.000206552)
(-0 -0 -0.000206552)
(3.60212e-21 -0 -0.000206552)
(3.60212e-21 3.60212e-21 -0.000206552)
(-3.99714e-34 -3.99714e-34 -0.000206552)
(-7.20424e-21 -7.20424e-21 -0.000206552)
(6.36487e-37 6.36487e-37 -0.000206552)
(7.20424e-21 7.20424e-21 -0.000206552)
(3.13812e-68 3.60212e-21 -0.000206552)
(-3.60212e-21 -0 -0.000206552)
(-0 -0 -0.000206552)
(-0 -3.60212e-21 -0.000206552)
(-0 -3.60212e-21 -0.000206552)
(-0 -0 -0.000206552)
(-0 -0 -0.000206552)
(-0 -0 -0.000206552)
(-0 -0 -0.000206552)
(-0 -0 -0.000206552)
(-0 -0 -0.000206552)
(-0 3.60212e-21 -0.000206552)
(-0 3.60212e-21 -0.000206552)
(-0 -0 -0.000206552)
(-0 -0 -0.000206552)
(-0 -3.60212e-21 -0.000206552)
(-0 -3.60212e-21 -0.000206552)
(-0 -0 -0.000206552)
(-0 -0 -0.000206552)
(-3.60212e-21 -3.60212e-21 -0.000206552)
(6.36487e-37 3.60212e-21 -0.000206552)
(3.60212e-21 3.60212e-21 -0.000206552)
(-0 -3.60212e-21 -0.000206552)
(-0 -0 -0.000206552)
(-0 -0 -0.000206552)
(-0 3.60212e-21 -0.000206552)
(-0 3.60212e-21 -0.000206552)
(-0 -3.60212e-21 -0.000206552)
(-0 -3.60212e-21 -0.000206552)
(-0 3.60212e-21 -0.000206552)
(-0 3.60212e-21 -0.000206552)
(-0 -3.60212e-21 -0.000206552)
(-0 -3.60212e-21 -0.000206552)
(-0 3.60212e-21 -0.000206552)
(-0 -0 -0.000206552)
(-3.60212e-21 -3.60212e-21 -0.000206552)
(3.99714e-34 -0 -0.000206552)
(3.60212e-21 3.60212e-21 -0.000206552)
(-0 3.60212e-21 -0.000206552)
(-0 -3.60212e-21 -0.000206552)
(-0 -3.60212e-21 -0.000206552)
(-0 3.60212e-21 -0.000206552)
(-0 -8.00064e-34 -0.000206552)
(-0 -3.60212e-21 -0.000206552)
(-0 -0 -0.000206552)
(-0 -0 -0.000206552)
(-0 -0 -0.000206552)
(-0 -0 -0.000206552)
(-0 -0 -0.000206552)
(-0 -0 -0.000206552)
(-0 3.60212e-21 -0.000206552)
(-0 1.19914e-33 -0.000206552)
(-0 -3.60212e-21 -0.000206552)
(-0 3.60212e-21 -0.000206552)
(-0 3.60212e-21 -0.000206552)
(-3.60212e-21 -3.60212e-21 -0.000206552)
(-4.00987e-34 -4.00987e-34 -0.000206552)
(3.60212e-21 -1.59949e-33 -0.000206552)
(-0 -3.60212e-21 -0.000206552)
(-0 -0 -0.000206552)
(-0 -0 -0.000206552)
(-0 3.60212e-21 -0.000206552)
(-0 3.60212e-21 -0.000206552)
(-0 -3.60212e-21 -0.000206552)
(-3.58951e-21 -3.58951e-21 -0.000205829)
(3.97347e-34 -0 -0.000205003)
(3.54088e-21 -0 -0.00020304)
(-0 -0 -0.000197979)
(-0 -0 -0.000186206)
(-0 -0 -0.00015832)
(-0 -0 -9.21197e-05)
(1.1346e-21 -0 6.50597e-05)
(7.64069e-21 -0 0.00043813)
(-2.30817e-20 -0 0.00132354)
(-5.97177e-20 -5.97177e-20 0.00342431)
(-0 -0 0.0083957)
(-0 3.96727e-19 0.022749)
(-0 -0 2.27921e-07)
(-0 6.18352e-24 -3.54573e-07)
(-0 6.86161e-37 -3.54573e-07)
(-0 6.86161e-37 -3.54573e-07)
(-0 -1.37342e-36 -3.54573e-07)
(-0 -6.18352e-24 -3.54573e-07)
(-0 6.18352e-24 -3.54573e-07)
(-6.18352e-24 -5.387e-71 -3.54573e-07)
(-6.85069e-37 -6.85069e-37 -3.54573e-07)
(6.18352e-24 -5.387e-71 -3.54573e-07)
(-0 -1.37342e-36 -3.54573e-07)
(-0 1.37342e-36 -3.54573e-07)
(-0 -6.18352e-24 -3.54573e-07)
(-0 -0 -3.54573e-07)
(-0 6.18352e-24 -3.54573e-07)
(-0 1.37232e-36 -3.54573e-07)
(-0 -0 -3.54573e-07)
(-0 6.86161e-37 -3.54573e-07)
(-0 -6.18352e-24 -3.54573e-07)
(6.18352e-24 6.18352e-24 -3.54573e-07)
(-6.86161e-37 -6.86161e-37 -3.54573e-07)
(-1.2367e-23 -1.2367e-23 -3.54573e-07)
(-1.37232e-36 6.18352e-24 -3.54573e-07)
(1.2367e-23 1.2367e-23 -3.54573e-07)
(6.85069e-37 -0 -3.54573e-07)
(-1.2367e-23 -6.18352e-24 -3.54573e-07)
(4.3096e-70 4.3096e-70 -3.54573e-07)
(6.18352e-24 6.86161e-37 -3.54573e-07)
(-0 -6.18352e-24 -3.54573e-07)
(-0 -0 -3.54573e-07)
(-0 -0 -3.54573e-07)
(-0 -0 -3.54573e-07)
(-0 -0 -3.54573e-07)
(-0 -0 -3.54573e-07)
(-0 -0 -3.54573e-07)
(-6.18352e-24 -0 -3.54573e-07)
(-1.37123e-36 -0 -3.54573e-07)
(6.18352e-24 -0 -3.54573e-07)
(-0 -0 -3.54573e-07)
(-0 -0 -3.54573e-07)
(-0 -0 -3.54573e-07)
(-0 -0 -3.54573e-07)
(-0 -0 -3.54573e-07)
(-0 -0 -3.54573e-07)
(-6.18352e-24 -0 -3.54573e-07)
(-6.18352e-24 -0 -3.54573e-07)
(6.18352e-24 6.18352e-24 -3.54573e-07)
(6.18352e-24 -5.387e-71 -3.54573e-07)
(-0 -6.18352e-24 -3.54573e-07)
(-0 -0 -3.54573e-07)
(-0 6.18352e-24 -3.54573e-07)
(-0 -0 -3.54573e-07)
(-0 -6.18352e-24 -3.54573e-07)
(-0 -0 -3.54573e-07)
(-6.18352e-24 -0 -3.54573e-07)
(-1.09261e-39 -0 -3.54573e-07)
(6.18352e-24 -0 -3.54573e-07)
(-0 -0 -3.54573e-07)
(-0 -0 -3.54573e-07)
(6.18352e-24 6.18352e-24 -3.54573e-07)
(-0 -0 -3.54573e-07)
(-1.2367e-23 -1.2367e-23 -3.54573e-07)
(6.86161e-37 6.18352e-24 -3.54573e-07)
(6.86161e-37 6.18352e-24 -3.54573e-07)
(-0 -0 -3.54573e-07)
(6.18352e-24 -1.37451e-36 -3.54573e-07)
(-0 -6.18352e-24 -3.54573e-07)
(-0 -6.18352e-24 -3.54573e-07)
(-0 2.05848e-36 -3.54573e-07)
(-0 6.18352e-24 -3.54573e-07)
(-0 -0 -3.54573e-07)
(-0 -0 -3.54573e-07)
(-0 -0 -3.54573e-07)
(-0 -0 -3.54573e-07)
(-0 6.18352e-24 -3.54573e-07)
(-0 6.86161e-37 -3.54573e-07)
(-0 -6.18352e-24 -3.54573e-07)
(-0 6.18352e-24 -3.54573e-07)
(-0 6.18352e-24 -3.54573e-07)
(-0 -6.18352e-24 -3.54573e-07)
(-0 -6.18352e-24 -3.54573e-07)
(-0 -0 -3.54573e-07)
(-0 -0 -3.54573e-07)
(-0 -0 -3.54573e-07)
(-0 -0 -3.54573e-07)
(-0 -0 -3.54573e-07)
(-6.18352e-24 -0 -3.54573e-07)
(1.37232e-36 -0 -3.54573e-07)
(6.18352e-24 -0 -3.54573e-07)
(-0 -0 -3.54573e-07)
(-0 -0 -3.54573e-07)
(-0 -0 -3.54573e-07)
(-0 -0 -3.54573e-07)
(-0 -0 -3.54573e-07)
(-0 -0 -3.54573e-07)
(-6.18352e-24 -0 -3.54573e-07)
(-6.18352e-24 -0 -3.54573e-07)
(6.18352e-24 -0 -3.54573e-07)
(6.18352e-24 -0 -3.54573e-07)
(-0 -0 -3.54573e-07)
(-0 -0 -3.54573e-07)
(-0 -0 -3.54573e-07)
(-0 6.18352e-24 -3.54573e-07)
(-0 6.18352e-24 -3.54573e-07)
(-0 -6.18352e-24 -3.54573e-07)
(-0 -6.18352e-24 -3.54573e-07)
(-0 6.18352e-24 -3.54573e-07)
(-0 -3.27784e-39 -3.54573e-07)
(-0 -6.18352e-24 -3.54573e-07)
(-0 -0 -3.54573e-07)
(-0 -0 -3.54573e-07)
(-0 -0 -3.54573e-07)
(-0 -0 -3.54573e-07)
(-0 -0 -3.54573e-07)
(-0 -0 -3.54573e-07)
(-0 -0 -3.54573e-07)
(-0 -0 -3.54573e-07)
(-0 -0 -3.54573e-07)
(-0 -0 -3.54573e-07)
(-0 6.18352e-24 -3.54573e-07)
(-0 1.09261e-39 -3.54573e-07)
(-0 -6.18352e-24 -3.54573e-07)
(-0 -0 -3.54573e-07)
(-0 -0 -3.54573e-07)
(-0 -0 -3.54573e-07)
(-0 -0 -3.54573e-07)
(-0 -0 -3.54573e-07)
(-0 6.18352e-24 -3.54573e-07)
(-0 -1.37232e-36 -3.54573e-07)
(-0 -6.18352e-24 -3.54573e-07)
(-0 -0 -3.54573e-07)
(-6.18352e-24 -0 -3.54573e-07)
(3.27784e-39 -0 -3.54573e-07)
(6.18352e-24 -0 -3.54573e-07)
(-0 -0 -3.54573e-07)
(-0 -0 -3.54573e-07)
(-0 -0 -3.54573e-07)
(-0 -0 -3.54573e-07)
(-0 -0 -3.54573e-07)
(-0 6.18352e-24 -3.54573e-07)
(-0 1.37342e-36 -3.54573e-07)
(-0 -6.18352e-24 -3.54573e-07)
(-0 -0 -3.54573e-07)
(-0 -0 -3.54573e-07)
(-0 -0 -3.54573e-07)
(-0 -0 -3.54573e-07)
(-0 -0 -3.54573e-07)
(-0 -0 -3.54573e-07)
(-0 -0 -3.54573e-07)
(-0 -0 -3.54573e-07)
(-0 6.18352e-24 -3.54573e-07)
(-0 6.18352e-24 -3.54573e-07)
(-0 -6.18352e-24 -3.54573e-07)
(-0 -6.18352e-24 -3.54573e-07)
(-0 -0 -3.54573e-07)
(-0 -0 -3.54573e-07)
(-0 -0 -3.54573e-07)
(-0 -0 -3.54573e-07)
(-0 6.18352e-24 -3.54573e-07)
(-0 -1.37451e-36 -3.54573e-07)
(-0 -6.18352e-24 -3.54573e-07)
(6.18352e-24 6.18352e-24 -3.54573e-07)
(-4.11915e-36 -4.11915e-36 -3.54573e-07)
(-6.18352e-24 -6.18352e-24 -3.54573e-07)
(-0 6.18352e-24 -3.54573e-07)
(-0 -2.74574e-36 -3.54573e-07)
(-0 -6.18352e-24 -3.54573e-07)
(-0 6.18352e-24 -3.54573e-07)
(-0 -0 -3.54573e-07)
(-0 -6.18352e-24 -3.54573e-07)
(-0 -0 -3.54573e-07)
(-0 6.18352e-24 -3.54573e-07)
(-0 6.18352e-24 -3.54573e-07)
(-0 -6.18352e-24 -3.54573e-07)
(-0 -6.18352e-24 -3.54573e-07)
(-0 -0 -3.54573e-07)
(-6.18352e-24 -0 -3.54573e-07)
(-1.37342e-36 -0 -3.54573e-07)
(6.18352e-24 6.18352e-24 -3.54573e-07)
(-0 1.37451e-36 -3.54573e-07)
(-0 -6.18352e-24 -3.54573e-07)
(-0 -0 -3.54573e-07)
(-0 -0 -3.54573e-07)
(-0 -0 -3.54573e-07)
(-0 -0 -3.54573e-07)
(-0 -0 -3.54573e-07)
(-0 -0 -3.54573e-07)
(-0 -0 -3.54573e-07)
(-0 -0 -3.54573e-07)
(-0 -0 -3.54573e-07)
(-0 -0 -3.54573e-07)
(-0 -0 -3.54573e-07)
(-0 6.18352e-24 -3.54573e-07)
(-0 -1.09261e-39 -3.54573e-07)
(-0 -6.18352e-24 -3.54573e-07)
(-0 -0 -3.54573e-07)
(-0 6.18352e-24 -3.54573e-07)
(-0 1.37451e-36 -3.54573e-07)
(-0 -6.18352e-24 -3.54573e-07)
(-0 -0 -3.54573e-07)
)
;

boundaryField
{
    top
    {
        type            calculated;
        value           uniform (-0 -0 -3.54573e-07);
    }
    left
    {
        type            empty;
    }
    right
    {
        type            empty;
    }
    front
    {
        type            empty;
    }
    back
    {
        type            empty;
    }
    bottom
    {
        type            calculated;
        value           uniform (3.60212e-21 7.20424e-21 -0.000206552);
    }
}


// ************************************************************************* //
