/*--------------------------------*- C++ -*----------------------------------*\
  =========                 |
  \\      /  F ield         | OpenFOAM: The Open Source CFD Toolbox
   \\    /   O peration     | Website:  https://openfoam.org
    \\  /    A nd           | Version:  7
     \\/     M anipulation  |
\*---------------------------------------------------------------------------*/
FoamFile
{
    version     2.0;
    format      ascii;
    class       volScalarField;
    location    "0.000";
    object      perm;
}
// * * * * * * * * * * * * * * * * * * * * * * * * * * * * * * * * * * * * * //

dimensions      [ 0 2 0 0 0 0 0 ];

/*
    K = k rho g / mu

Hydraulic Conductivity K = 9.8E-4 m/s
Water density rho = 1000 kg/m³
Dynamic viscosity mu = 0.001 Ns/m²

Permeability 
    k = K mu /rho g
    k = 9.8E-4 * 0.001 / 1000 * 9.81
    k = 9.99E-11 m²
*/

internalField   uniform 9.99E-11;

boundaryField
{
    front
    {
        type            empty;
    }
    back
    {
        type            empty;
    }
    right
    {
        type            zeroGradient;
    }
    left
    {
        type            zeroGradient;
    }
    top
    {
        type            zeroGradient;
    }
    bottom
    {
        type            zeroGradient;
    }
}


// ************************************************************************* //
