/*--------------------------------*- C++ -*----------------------------------*\
  =========                 |
  \\      /  F ield         | OpenFOAM: The Open Source CFD Toolbox
   \\    /   O peration     | Website:  https://openfoam.org
    \\  /    A nd           | Version:  7
     \\/     M anipulation  |
\*---------------------------------------------------------------------------*/
FoamFile
{
    version     2.0;
    format      ascii;
    class       volVectorField;
    location    "0.000";
    object      U;
}
// * * * * * * * * * * * * * * * * * * * * * * * * * * * * * * * * * * * * * //

dimensions      [0 1 -1 0 0 0 0];

internalField   nonuniform List<vector> 
413
(
(7.51311e-22 7.51311e-22 -9.35388e-05)
(8.0224e-22 8.0224e-22 -0.000100216)
(8.10379e-22 -8.10379e-22 -0.000100216)
(-8.18564e-22 -8.07657e-22 -0.000100216)
(-8.04907e-22 -0 -0.000100216)
(-8.24091e-22 -8.18601e-22 -0.000100216)
(1.10177e-23 -8.15851e-22 -0.000100216)
(1.6372e-21 8.24128e-22 -0.000100216)
(-2.48072e-21 -5.54605e-24 -0.000100216)
(-1.64269e-21 -8.24128e-22 -0.000100216)
(8.26906e-22 -0 -0.000100216)
(8.35295e-22 8.35295e-22 -0.000100216)
(8.32489e-22 8.32489e-22 -0.000100216)
(-0 -0 -0.000100216)
(-8.4377e-22 -8.4377e-22 -0.000100216)
(5.67823e-24 5.67823e-24 -0.000100216)
(-5.69737e-24 -5.69737e-24 -0.000100216)
(8.58047e-22 5.71657e-24 -0.000100216)
(8.43731e-22 -5.73584e-24 -0.000100216)
(-8.5233e-22 5.75517e-24 -0.000100216)
(8.60978e-22 8.55203e-22 -0.000100216)
(-8.69673e-22 -0 -0.000100216)
(-1.72196e-21 8.66791e-22 -0.000100216)
(-0 8.63879e-22 -0.000100216)
(-0 -1.74529e-21 -0.000100216)
(1.75117e-21 1.76292e-21 -0.000100216)
(1.74529e-21 1.7335e-21 -0.000100216)
(-8.81497e-22 -3.51417e-21 -0.000100216)
(-8.78536e-22 -8.72604e-22 -0.000100216)
(-1.7749e-21 -5.95212e-24 -0.000100216)
(9.02385e-22 5.97218e-24 -0.000100216)
(8.75465e-22 -5.9923e-24 -0.000100216)
(-8.84428e-22 6.01251e-24 -0.000100216)
(8.93442e-22 8.93442e-22 -0.000100216)
(9.02506e-22 -0 -0.000100216)
(8.99475e-22 9.05548e-22 -0.000100216)
(-9.086e-22 -9.14694e-22 -0.000100216)
(-9.05548e-22 1.2229e-23 -0.000100216)
(-0 -1.22703e-23 -0.000100216)
(-9.17818e-22 -1.82333e-21 -0.000100216)
(6.17654e-24 -0 -0.000100216)
(9.17818e-22 -0 -0.000100216)
(-0 9.2713e-22 -0.000100216)
(-9.30255e-22 -6.23923e-24 -0.000100216)
(-9.2713e-22 -9.2713e-22 -0.000100216)
(-0 -0 -0.000100216)
(9.39693e-22 9.39693e-22 -0.000100216)
(9.36536e-22 9.36536e-22 -0.000100216)
(-0 -0 -0.000100216)
(-9.49226e-22 -9.49226e-22 -0.000100216)
(6.38789e-24 6.38789e-24 -0.000100216)
(-6.40946e-24 -6.40946e-24 -0.000100216)
(6.43107e-24 6.43107e-24 -0.000100216)
(9.55636e-22 9.55636e-22 -0.000100216)
(-0 9.65331e-22 -0.000100216)
(-0 -6.49626e-24 -0.000100216)
(9.71849e-22 -1.93718e-21 -0.000100216)
(-6.54019e-24 -9.68585e-22 -0.000100216)
(-9.71849e-22 1.95682e-21 -0.000100216)
(-0 -1.31687e-23 -0.000100216)
(9.85018e-22 -9.71805e-22 -0.000100216)
(-6.62872e-24 9.81709e-22 -0.000100216)
(-9.85018e-22 -0 -0.000100216)
(-0 -0 -0.000100216)
(-0 -0 -0.000100216)
(-1.00173e-21 -1.00173e-21 -0.000100216)
(6.74125e-24 6.74125e-24 -0.000100216)
(1.00173e-21 1.00173e-21 -0.000100216)
(-0 -0 -0.000100216)
(-1.0153e-21 -0 -0.000100216)
(6.83257e-24 -0 -0.000100216)
(1.0153e-21 -0 -0.000100216)
(-0 -0 -0.000100216)
(1.02906e-21 -0 -0.000100216)
(-1.03945e-21 -0 -0.000100216)
(-2.05812e-21 -1.03601e-21 -0.000100216)
(2.079e-21 1.04647e-21 -0.000100216)
(2.07202e-21 1.02901e-21 -0.000100216)
(-0 -2.08602e-21 -0.000100216)
(-1.05005e-21 -1.04301e-21 -0.000100216)
(-1.04652e-21 1.05359e-21 -0.000100216)
(-1.05714e-21 1.05005e-21 -0.000100216)
(7.11413e-24 -1.0607e-21 -0.000100216)
(1.05714e-21 -1.05714e-21 -0.000100216)
(-0 1.06786e-21 -0.000100216)
(-0 1.06428e-21 -0.000100216)
(-0 -0 -0.000100216)
(-1.0787e-21 -1.0787e-21 -0.000100216)
(7.25923e-24 -1.07507e-21 -0.000100216)
(1.0787e-21 1.08598e-21 -0.000100216)
(1.08964e-21 2.17197e-21 -0.000100216)
(-1.10065e-21 -1.10065e-21 -0.000100216)
(-1.08228e-21 -2.17928e-21 -0.000100216)
(-7.38234e-24 -0 -0.000100216)
(7.40725e-24 1.10441e-21 -0.000100216)
(1.1007e-21 1.1007e-21 -0.000100216)
(1.11186e-21 -0 -0.000100216)
(-7.48237e-24 -0 -0.000100216)
(-2.23123e-21 -0 -0.000100216)
(1.13068e-21 1.12314e-21 -0.000100216)
(-1.51165e-23 -7.55826e-24 -0.000100216)
(-1.11556e-21 -1.12314e-21 -0.000100216)
(2.26147e-21 1.13454e-21 -0.000100216)
(-1.146e-21 -7.63495e-24 -0.000100216)
(-2.26908e-21 -2.27674e-21 -0.000100216)
(-0 -1.13836e-21 -0.000100216)
(-0 -0 -0.000100216)
(3.46136e-21 1.15379e-21 -0.000100216)
(2.29206e-21 2.30759e-21 -0.000100216)
(-1.15379e-21 1.15379e-21 -0.000100216)
(-1.16549e-21 -1.16549e-21 -0.000100216)
(7.8433e-24 -1.16158e-21 -0.000100216)
(-1.18123e-21 -1.17336e-21 -0.000100216)
(-1.16153e-21 1.18521e-21 -0.000100216)
(1.17336e-21 1.16544e-21 -0.000100216)
(1.18527e-21 -2.36259e-21 -0.000100216)
(-7.97635e-24 -1.18129e-21 -0.000100216)
(-2.37854e-21 -0 -0.000100216)
(8.03023e-24 2.39459e-21 -0.000100216)
(2.3946e-21 2.38654e-21 -0.000100216)
(-8.08449e-24 -2.41075e-21 -0.000100216)
(-1.20133e-21 -2.40266e-21 -0.000100216)
(-0 1.21352e-21 -0.000100216)
(1.21761e-21 1.20944e-21 -0.000100216)
(-1.2299e-21 -1.22171e-21 -0.000100216)
(-2.43521e-21 -1.21761e-21 -0.000100216)
(1.22996e-21 1.22996e-21 -0.000100216)
(-8.27716e-24 2.45993e-21 -0.000100216)
(2.48483e-21 2.46822e-21 -0.000100216)
(-2.49991e-23 -2.49321e-21 -0.000100216)
(-2.46817e-21 -3.71479e-21 -0.000100216)
(-8.38929e-24 -0 -0.000100216)
(8.41753e-24 1.25504e-21 -0.000100216)
(-8.44591e-24 -8.44591e-24 -0.000100216)
(8.47444e-24 8.47444e-24 -0.000100216)
(2.52705e-21 2.52705e-21 -0.000100216)
(1.26352e-21 1.26352e-21 -0.000100216)
(-1.27634e-21 -1.27634e-21 -0.000100216)
(-2.55269e-21 -2.55269e-21 -0.000100216)
(8.61814e-24 8.61814e-24 -0.000100216)
(-8.64725e-24 1.28064e-21 -0.000100216)
(8.67635e-24 -0 -0.000100216)
(2.58728e-21 1.29799e-21 -0.000100216)
(-8.73501e-24 1.29363e-21 -0.000100216)
(1.31552e-21 -0 -0.000100216)
(1.29357e-21 -1.31116e-21 -0.000100216)
(-3.93791e-21 -2.62233e-21 -0.000100216)
(-1.30231e-21 8.85333e-24 -0.000100216)
(-8.8832e-24 -8.8832e-24 -0.000100216)
(8.91306e-24 -1.32001e-21 -0.000100216)
(-8.94317e-24 -1.33341e-21 -0.000100216)
(-1.32893e-21 1.34687e-21 -0.000100216)
(-0 1.3244e-21 -0.000100216)
(-0 -1.3379e-21 -0.000100216)
(1.35147e-21 1.35147e-21 -0.000100216)
(-9.0949e-24 -9.0949e-24 -0.000100216)
(9.12549e-24 -1.35147e-21 -0.000100216)
(-9.15624e-24 1.36518e-21 -0.000100216)
(-1.3606e-21 -9.18716e-24 -0.000100216)
(-0 -1.36518e-21 -0.000100216)
(4.13711e-21 2.75807e-21 -0.000100216)
(2.73953e-21 2.74881e-21 -0.000100216)
(-4.15573e-21 -4.16504e-21 -0.000100216)
(1.86861e-23 2.80291e-23 -0.000100216)
(1.37897e-21 2.76732e-21 -0.000100216)
(-1.39303e-21 -2.79546e-21 -0.000100216)
(-0 9.43776e-24 -0.000100216)
(-1.4119e-21 -9.46963e-24 -0.000100216)
(9.5015e-24 9.5015e-24 -0.000100216)
(1.4119e-21 2.83334e-21 -0.000100216)
(-1.42623e-21 -1.43579e-21 -0.000100216)
(1.44063e-21 1.91958e-23 -0.000100216)
(1.4166e-21 1.4166e-21 -0.000100216)
(9.66275e-24 -1.43103e-21 -0.000100216)
(-1.45525e-21 -0 -0.000100216)
(-2.88139e-21 -0 -0.000100216)
(1.45531e-21 -1.45531e-21 -0.000100216)
(-9.79361e-24 9.79361e-24 -0.000100216)
(-1.45531e-21 1.45531e-21 -0.000100216)
(-0 -0 -0.000100216)
(1.47503e-21 1.47503e-21 -0.000100216)
(-9.92638e-24 -9.92638e-24 -0.000100216)
(1.49495e-21 9.95994e-24 -0.000100216)
(1.47001e-21 -9.9934e-24 -0.000100216)
(-1.48499e-21 -1.48499e-21 -0.000100216)
(-1.50006e-21 -1.50006e-21 -0.000100216)
(1.51521e-21 1.51521e-21 -0.000100216)
(1.48993e-21 -2.02577e-23 -0.000100216)
(-3.02039e-21 -3.01023e-21 -0.000100216)
(1.01973e-23 1.52038e-21 -0.000100216)
(-1.02315e-23 -1.02315e-23 -0.000100216)
(-1.52038e-21 -1.52038e-21 -0.000100216)
(1.53581e-21 1.53581e-21 -0.000100216)
(-1.03353e-23 -1.03353e-23 -0.000100216)
(-1.53581e-21 -1.53581e-21 -0.000100216)
(-0 -0 -0.000100216)
(-0 1.55662e-21 -0.000100216)
(1.56187e-21 1.55139e-21 -0.000100216)
(1.55662e-21 -0 -0.000100216)
(-0 -0 -0.000100216)
(-0 1.57771e-21 -0.000100216)
(3.16606e-21 1.57241e-21 -0.000100216)
(-2.13063e-23 -1.58837e-21 -0.000100216)
(-4.75978e-21 -3.17675e-21 -0.000100216)
(1.0725e-23 1.0725e-23 -0.000100216)
(-1.07613e-23 -1.61524e-21 -0.000100216)
(-1.59909e-21 -1.58829e-21 -0.000100216)
(-0 3.21979e-21 -0.000100216)
(-0 -1.08704e-23 -0.000100216)
(1.62622e-21 1.09071e-23 -0.000100216)
(3.25246e-21 3.25246e-21 -0.000100216)
(-1.64818e-21 -1.64818e-21 -0.000100216)
(-3.2634e-21 -1.62068e-21 -0.000100216)
(1.64826e-21 1.6372e-21 -0.000100216)
(1.64272e-21 -0 -0.000100216)
(-1.65939e-21 -1.65939e-21 -0.000100216)
(1.1167e-23 -1.65381e-21 -0.000100216)
(-1.6818e-21 -0 -0.000100216)
(2.24849e-23 1.67622e-21 -0.000100216)
(3.34118e-21 1.67059e-21 -0.000100216)
(-0 -0 -0.000100216)
(-0 -0 -0.000100216)
(-0 -1.69893e-21 -0.000100216)
(-0 1.14331e-23 -0.000100216)
(-0 3.40934e-21 -0.000100216)
(-1.71617e-21 -1.72768e-21 -0.000100216)
(-1.71041e-21 -3.42081e-21 -0.000100216)
(1.72776e-21 1.72776e-21 -0.000100216)
(-1.74521e-21 -1.1627e-23 -0.000100216)
(2.33327e-23 3.49052e-21 -0.000100216)
(3.46716e-21 1.71017e-21 -0.000100216)
(-1.75117e-21 -5.23002e-21 -0.000100216)
(-1.74529e-21 1.17847e-23 -0.000100216)
(1.76299e-21 3.51416e-21 -0.000100216)
(1.75707e-21 -1.18642e-23 -0.000100216)
(-1.7749e-21 -1.76299e-21 -0.000100216)
(1.19444e-23 -0 -0.000100216)
(1.7749e-21 -0 -0.000100216)
(-1.79291e-21 -1.79291e-21 -0.000100216)
(1.20655e-23 1.20655e-23 -0.000100216)
(1.79291e-21 1.79291e-21 -0.000100216)
(-0 -0 -0.000100216)
(-0 -0 -0.000100216)
(-0 -1.82333e-21 -0.000100216)
(-1.82947e-21 -1.8172e-21 -0.000100216)
(1.84795e-21 3.67127e-21 -0.000100216)
(1.81712e-21 1.81712e-21 -0.000100216)
(-3.68367e-21 -5.5317e-21 -0.000100216)
(-1.84182e-21 -1.82939e-21 -0.000100216)
(-1.86051e-21 -1.24783e-23 -0.000100216)
(1.8793e-21 1.8793e-21 -0.000100216)
(5.59409e-21 3.72102e-21 -0.000100216)
(-1.89199e-21 -1.87939e-21 -0.000100216)
(-3.74615e-21 -1.87307e-21 -0.000100216)
(1.89208e-21 -0 -0.000100216)
(1.88572e-21 1.89845e-21 -0.000100216)
(-0 1.89208e-21 -0.000100216)
(-1.91127e-21 -1.91127e-21 -0.000100216)
(1.28621e-23 1.28621e-23 -0.000100216)
(-1.29053e-23 1.91127e-21 -0.000100216)
(1.29491e-23 -0 -0.000100216)
(-1.29926e-23 -1.93717e-21 -0.000100216)
(1.95674e-21 1.95674e-21 -0.000100216)
(1.92409e-21 -2.61608e-23 -0.000100216)
(-1.9437e-21 -1.93057e-21 -0.000100216)
(-0 -1.31685e-23 -0.000100216)
(-0 -1.95682e-21 -0.000100216)
(-0 3.95335e-21 -0.000100216)
(-1.98334e-21 1.95673e-21 -0.000100216)
(2.00337e-21 1.33469e-23 -0.000100216)
(1.96995e-21 -1.33922e-23 -0.000100216)
(1.34371e-23 1.34371e-23 -0.000100216)
(-1.34824e-23 -1.34824e-23 -0.000100216)
(1.3528e-23 1.3528e-23 -0.000100216)
(-1.35735e-23 -1.35735e-23 -0.000100216)
(-2.01699e-21 -2.01699e-21 -0.000100216)
(2.03745e-21 2.03745e-21 -0.000100216)
(-1.37111e-23 -1.37111e-23 -0.000100216)
(1.37575e-23 1.37575e-23 -0.000100216)
(2.04432e-21 4.10244e-21 -0.000100216)
(-2.06506e-21 -2.07891e-21 -0.000100216)
(-2.05812e-21 -4.11625e-21 -0.000100216)
(-2.079e-21 -2.079e-21 -0.000100216)
(2.1e-21 2.1e-21 -0.000100216)
(-2.80762e-23 -2.80762e-23 -0.000100216)
(-2.07193e-21 2.81705e-23 -0.000100216)
(-1.41328e-23 -2.82656e-23 -0.000100216)
(1.41805e-23 -2.08592e-21 -0.000100216)
(2.10717e-21 -1.42283e-23 -0.000100216)
(-0 1.42762e-23 -0.000100216)
(-0 2.1214e-21 -0.000100216)
(-0 -0 -0.000100216)
(-0 -0 -0.000100216)
(-2.15739e-21 -2.15739e-21 -0.000100216)
(1.45184e-23 1.45184e-23 -0.000100216)
(4.32936e-21 2.15739e-21 -0.000100216)
(2.16467e-21 -0 -0.000100216)
(-4.37326e-21 -0 -0.000100216)
(-2.16457e-21 -0 -0.000100216)
(2.18663e-21 -0 -0.000100216)
(-0 -0 -0.000100216)
(2.21626e-21 -2.21626e-21 -0.000100216)
(2.20881e-21 2.23864e-21 -0.000100216)
(-4.46244e-21 -2.26115e-21 -0.000100216)
(3.00302e-23 -4.43244e-21 -0.000100216)
(4.46244e-21 6.7238e-21 -0.000100216)
(-2.25386e-21 2.22363e-21 -0.000100216)
(-2.24629e-21 -2.24629e-21 -0.000100216)
(-2.26908e-21 -2.26908e-21 -0.000100216)
(1.52698e-23 1.52698e-23 -0.000100216)
(2.26908e-21 2.26908e-21 -0.000100216)
(-0 -0 -0.000100216)
(-0 -0 -0.000100216)
(-0 -0 -0.000100216)
(2.31535e-21 2.31535e-21 -0.000100216)
(-1.55814e-23 -1.55814e-23 -0.000100216)
(-2.31535e-21 -2.31535e-21 -0.000100216)
(-2.33884e-21 -2.33884e-21 -0.000100216)
(2.36247e-21 2.36247e-21 -0.000100216)
(2.32305e-21 2.32305e-21 -0.000100216)
(-2.34673e-21 -2.34673e-21 -0.000100216)
(-0 -0 -0.000100216)
(2.37852e-21 2.37852e-21 -0.000100216)
(-1.60068e-23 -1.60068e-23 -0.000100216)
(-2.37852e-21 -2.37852e-21 -0.000100216)
(-2.40266e-21 -2.40266e-21 -0.000100216)
(1.6169e-23 -2.39458e-21 -0.000100216)
(2.40266e-21 2.41888e-21 -0.000100216)
(-0 2.41075e-21 -0.000100216)
(-2.43521e-21 -0 -0.000100216)
(1.63881e-23 -0 -0.000100216)
(-1.64433e-23 -2.45166e-21 -0.000100216)
(1.64984e-23 -2.44342e-21 -0.000100216)
(-2.48476e-21 -0 -0.000100216)
(-2.44331e-21 -0 -0.000100216)
(4.95309e-21 4.96975e-21 -0.000100216)
(4.96978e-21 4.95306e-21 -0.000100216)
(-1.67789e-23 -2.50165e-21 -0.000100216)
(-2.49325e-21 -2.49325e-21 -0.000100216)
(-0 -0 -0.000100216)
(-2.52703e-21 -2.52703e-21 -0.000100216)
(1.70056e-23 -2.51855e-21 -0.000100216)
(2.52703e-21 2.5441e-21 -0.000100216)
(2.55267e-21 5.08822e-21 -0.000100216)
(-1.71785e-23 -5.13973e-21 -0.000100216)
(1.72364e-23 -2.5182e-21 -0.000100216)
(-1.72943e-23 5.12255e-21 -0.000100216)
(-2.56991e-21 -0 -0.000100216)
(-2.59598e-21 -0 -0.000100216)
(1.74702e-23 -0 -0.000100216)
(2.59598e-21 -0 -0.000100216)
(-5.24464e-21 -2.62232e-21 -0.000100216)
(-2.59586e-21 -2.61351e-21 -0.000100216)
(7.90237e-21 7.92008e-21 -0.000100216)
(-3.55334e-23 -5.33001e-23 -0.000100216)
(-5.28005e-21 -5.26223e-21 -0.000100216)
(2.66681e-21 2.64892e-21 -0.000100216)
(2.65785e-21 -0 -0.000100216)
(-0 -2.68482e-21 -0.000100216)
(-2.69387e-21 -2.6758e-21 -0.000100216)
(1.81286e-23 2.70295e-21 -0.000100216)
(5.40592e-21 2.69387e-21 -0.000100216)
(-1.8251e-23 2.7212e-21 -0.000100216)
(-2.71206e-21 -1.83126e-23 -0.000100216)
(2.73957e-21 -2.7212e-21 -0.000100216)
(-2.76724e-21 -2.74881e-21 -0.000100216)
(-5.47914e-21 -2.73957e-21 -0.000100216)
(5.53473e-21 5.53473e-21 -0.000100216)
(-3.72474e-23 -3.72474e-23 -0.000100216)
(-2.74868e-21 -5.53473e-21 -0.000100216)
(2.77669e-21 5.59089e-21 -0.000100216)
(-2.80486e-21 -3.76243e-23 -0.000100216)
(1.88755e-23 -2.77657e-21 -0.000100216)
(-1.89396e-23 -1.89396e-23 -0.000100216)
(-2.81432e-21 -2.81432e-21 -0.000100216)
(2.84287e-21 2.84287e-21 -0.000100216)
(2.83332e-21 2.83332e-21 -0.000100216)
(-2.86207e-21 -0 -0.000100216)
(-2.85245e-21 -2.87171e-21 -0.000100216)
(2.88139e-21 1.93253e-23 -0.000100216)
(-1.93905e-23 -1.93905e-23 -0.000100216)
(1.94561e-23 1.94561e-23 -0.000100216)
(-1.95217e-23 -1.95217e-23 -0.000100216)
(2.94002e-21 2.94002e-21 -0.000100216)
(-3.93071e-23 -3.93071e-23 -0.000100216)
(-2.90072e-21 -2.90072e-21 -0.000100216)
(2.93028e-21 2.93028e-21 -0.000100216)
(-0 -0 -0.000100216)
(-0 -0 -0.000100216)
(-0 -0 -0.000100216)
(-0 -0 -0.000100216)
(3.00012e-21 3.00012e-21 -0.000100216)
(-2.01897e-23 -2.01897e-23 -0.000100216)
(-3.00012e-21 -3.00012e-21 -0.000100216)
(-3.03055e-21 -0 -0.000100216)
(2.03943e-23 -3.04077e-21 -0.000100216)
(3.03055e-21 2.04634e-23 -0.000100216)
(3.0613e-21 6.10207e-21 -0.000100216)
(-2.06013e-23 -3.09222e-21 -0.000100216)
(-6.14327e-21 -6.1226e-21 -0.000100216)
(3.1131e-21 6.18472e-21 -0.000100216)
(3.06116e-21 3.06116e-21 -0.000100216)
(-6.2056e-21 -3.09236e-21 -0.000100216)
(2.09509e-23 -0 -0.000100216)
(3.11324e-21 -3.13426e-21 -0.000100216)
(-3.14482e-21 2.10922e-23 -0.000100216)
(3.17659e-21 6.28968e-21 -0.000100216)
(3.12359e-21 -3.18729e-21 -0.000100216)
(-3.15542e-21 4.26131e-23 -0.000100216)
(3.18744e-21 3.14468e-21 -0.000100216)
(-2.14501e-23 -3.17673e-21 -0.000100216)
(-3.18744e-21 -3.20896e-21 -0.000100216)
(-0 -3.19818e-21 -0.000100216)
)
;

boundaryField
{
    top
    {
        type            calculated;
        value           uniform (-0 -3.19818e-21 -0.000100216);
    }
    left
    {
        type            empty;
    }
    right
    {
        type            empty;
    }
    front
    {
        type            empty;
    }
    back
    {
        type            empty;
    }
    bottom
    {
        type            calculated;
        value           uniform (7.52783e-22 7.52783e-22 -9.03713e-05);
    }
}


// ************************************************************************* //
